# vtk DataFile Version 2.0
Data set from ImportExport Version 6.5.141.ec284b7a5
ASCII

DATASET RECTILINEAR_GRID
DIMENSIONS 201 2 201
 
CELL_DATA 40000
SCALARS IPFColor unsigned_char 3
LOOKUP_TABLE default
 40 255 185 40 255 185 40 255 185 40 255 185 40 255 185 40 255 185 40 255
 185 40 255 185 40 255 185 40 255 185 40 255 185 40 255 185 40 255 185 40
 255 185 99 255 196 99 255 196 99 255 196 99 255 196 99 255 196 99 255 196
 99 255 196 170 255 237 170 255 237 170 255 237 170 255 237 155 210 255 155 210
 255 155 210 255 155 210 255 155 210 255 155 210 255 155 210 255 155 210 255 155
 210 255 155 210 255 155 210 255 255 108 190 255 108 190 255 108 190 255 108 190
 255 108 190 255 108 190 255 108 190 255 108 190 255 108 190 255 108 190 255 108
 190 255 108 190 255 108 190 255 108 190 255 108 190 82 207 255 82 207 255 82
 207 255 82 207 255 82 207 255 82 207 255 82 207 255 82 207 255 82 207 255
 82 207 255 82 207 255 82 207 255 82 207 255 82 207 255 82 207 255 82 207
 255 82 207 255 82 207 255 82 207 255 82 207 255 82 207 255 230 180 255 230
 180 255 230 180 255 230 180 255 230 180 255 230 180 255 230 180 255 230 180 255
 230 180 255 230 180 255 230 180 255 230 180 255 160 255 171 160 255 171 160 255
 171 160 255 171 160 255 171 160 255 171 160 255 171 160 255 171 160 255 171 160
 255 171 160 255 171 160 255 171 160 255 171 160 255 171 160 255 171 160 255 171
 160 255 171 160 255 171 160 255 171 160 255 171 160 255 171 160 255 171 160 255
 171 160 255 171 160 255 171 160 255 171 160 255 171 179 80 255 179 80 255 179
 80 255 179 80 255 179 80 255 179 80 255 179 80 255 179 80 255 179 80 255
 179 80 255 179 80 255 179 80 255 179 80 255 179 80 255 179 80 255 179 80
 255 179 80 255 179 80 255 179 80 255 179 80 255 179 80 255 179 80 255 179
 80 255 179 80 255 179 80 255 179 80 255 179 80 255 179 80 255 179 80 255
 179 80 255 179 80 255 179 80 255 145 87 255 145 87 255 145 87 255 145 87
 255 145 87 255 145 87 255 145 87 255 145 87 255 145 87 255 145 87 255 145
 87 255 145 87 255 145 87 255 145 87 255 145 87 255 145 87 255 145 87 255
 145 87 255 145 87 255 145 87 255 145 87 255 145 87 255 145 87 255 145 87
 255 89 204 255 89 204 255 89 204 255 89 204 255 89 204 255 89 204 255 89
 204 255 89 204 255 89 204 255 89 204 255 89 204 255 89 204 255 89 204 255
 89 204 255 110 109 255 110 109 255 110 109 255 110 109 255 110 109 255 110 109
 255 110 109 255 110 109 255 110 109 255 110 109 255 110 109 255 110 109 255 110
 109 255 110 109 255 110 109 255 110 109 255 110 109 255 110 109 255 110 109 255
 40 255 185 40 255 185 40 255 185 40 255 185 40 255 185 40 255 185 40 255
 185 40 255 185 40 255 185 40 255 185 40 255 185 40 255 185 40 255 185 40
 255 185 99 255 196 99 255 196 99 255 196 99 255 196 99 255 196 99 255 196
 99 255 196 170 255 237 170 255 237 170 255 237 170 255 237 155 210 255 155 210
 255 155 210 255 155 210 255 155 210 255 155 210 255 155 210 255 155 210 255 155
 210 255 155 210 255 155 210 255 255 108 190 255 108 190 255 108 190 255 108 190
 255 108 190 255 108 190 255 108 190 255 108 190 255 108 190 255 108 190 255 108
 190 255 108 190 255 108 190 255 108 190 255 108 190 82 207 255 82 207 255 82
 207 255 82 207 255 82 207 255 82 207 255 82 207 255 82 207 255 82 207 255
 82 207 255 82 207 255 82 207 255 82 207 255 82 207 255 82 207 255 82 207
 255 82 207 255 82 207 255 82 207 255 82 207 255 82 207 255 230 180 255 230
 180 255 230 180 255 230 180 255 230 180 255 230 180 255 230 180 255 230 180 255
 230 180 255 230 180 255 230 180 255 230 180 255 230 180 255 160 255 171 160 255
 171 160 255 171 160 255 171 160 255 171 160 255 171 160 255 171 160 255 171 160
 255 171 160 255 171 160 255 171 160 255 171 160 255 171 160 255 171 160 255 171
 160 255 171 160 255 171 160 255 171 160 255 171 160 255 171 160 255 171 160 255
 171 160 255 171 160 255 171 160 255 171 160 255 171 179 80 255 179 80 255 179
 80 255 179 80 255 179 80 255 179 80 255 179 80 255 179 80 255 179 80 255
 179 80 255 179 80 255 179 80 255 179 80 255 179 80 255 179 80 255 179 80
 255 179 80 255 179 80 255 179 80 255 179 80 255 179 80 255 179 80 255 179
 80 255 179 80 255 179 80 255 179 80 255 179 80 255 179 80 255 179 80 255
 179 80 255 179 80 255 179 80 255 66 255 119 66 255 119 66 255 119 145 87
 255 145 87 255 145 87 255 145 87 255 145 87 255 145 87 255 145 87 255 145
 87 255 145 87 255 145 87 255 145 87 255 145 87 255 145 87 255 145 87 255
 145 87 255 145 87 255 145 87 255 145 87 255 145 87 255 145 87 255 145 87
 255 89 204 255 89 204 255 89 204 255 89 204 255 89 204 255 89 204 255 89
 204 255 89 204 255 89 204 255 89 204 255 89 204 255 89 204 255 89 204 255
 89 204 255 110 109 255 110 109 255 110 109 255 110 109 255 110 109 255 110 109
 255 110 109 255 110 109 255 110 109 255 110 109 255 110 109 255 110 109 255 110
 109 255 110 109 255 110 109 255 110 109 255 110 109 255 110 109 255 110 109 255
 40 255 185 40 255 185 40 255 185 40 255 185 40 255 185 40 255 185 40 255
 185 40 255 185 40 255 185 41 255 230 41 255 230 41 255 230 41 255 230 41
 255 230 99 255 196 99 255 196 99 255 196 99 255 196 99 255 196 99 255 196
 99 255 196 170 255 237 170 255 237 170 255 237 170 255 237 155 210 255 155 210
 255 155 210 255 155 210 255 155 210 255 155 210 255 155 210 255 155 210 255 155
 210 255 155 210 255 155 210 255 255 108 190 255 108 190 255 108 190 255 108 190
 255 108 190 255 108 190 255 108 190 255 108 190 255 108 190 255 108 190 255 108
 190 255 108 190 255 108 190 255 108 190 255 108 190 82 207 255 82 207 255 82
 207 255 82 207 255 82 207 255 82 207 255 82 207 255 82 207 255 82 207 255
 82 207 255 82 207 255 82 207 255 82 207 255 82 207 255 82 207 255 82 207
 255 82 207 255 82 207 255 82 207 255 82 207 255 82 207 255 230 180 255 230
 180 255 230 180 255 230 180 255 230 180 255 230 180 255 230 180 255 230 180 255
 230 180 255 230 180 255 230 180 255 230 180 255 230 180 255 230 180 255 160 255
 171 160 255 171 160 255 171 160 255 171 160 255 171 160 255 171 160 255 171 160
 255 171 160 255 171 160 255 171 160 255 171 160 255 171 160 255 171 160 255 171
 160 255 171 160 255 171 160 255 171 160 255 171 160 255 171 160 255 171 160 255
 171 160 255 171 160 255 171 160 255 171 160 255 171 179 80 255 179 80 255 179
 80 255 179 80 255 179 80 255 179 80 255 179 80 255 179 80 255 179 80 255
 179 80 255 179 80 255 179 80 255 179 80 255 179 80 255 179 80 255 179 80
 255 179 80 255 179 80 255 179 80 255 179 80 255 179 80 255 179 80 255 179
 80 255 179 80 255 179 80 255 179 80 255 179 80 255 179 80 255 179 80 255
 179 80 255 179 80 255 66 255 119 66 255 119 66 255 119 66 255 119 66 255
 119 145 87 255 145 87 255 145 87 255 145 87 255 145 87 255 145 87 255 145
 87 255 145 87 255 145 87 255 145 87 255 145 87 255 145 87 255 145 87 255
 145 87 255 145 87 255 145 87 255 145 87 255 145 87 255 145 87 255 89 204
 255 89 204 255 89 204 255 89 204 255 89 204 255 89 204 255 89 204 255 89
 204 255 89 204 255 89 204 255 89 204 255 89 204 255 89 204 255 89 204 255
 89 204 255 110 109 255 110 109 255 110 109 255 110 109 255 110 109 255 110 109
 255 110 109 255 110 109 255 110 109 255 110 109 255 110 109 255 110 109 255 110
 109 255 110 109 255 110 109 255 110 109 255 110 109 255 110 109 255 110 109 255
 40 255 185 40 255 185 40 255 185 40 255 185 40 255 185 40 255 185 40 255
 185 41 255 230 41 255 230 41 255 230 41 255 230 41 255 230 41 255 230 41
 255 230 99 255 196 99 255 196 99 255 196 99 255 196 99 255 196 99 255 196
 99 255 196 170 255 237 170 255 237 170 255 237 170 255 237 155 210 255 155 210
 255 155 210 255 155 210 255 155 210 255 155 210 255 155 210 255 155 210 255 155
 210 255 155 210 255 155 210 255 255 108 190 255 108 190 255 108 190 255 108 190
 255 108 190 255 108 190 255 108 190 255 108 190 255 108 190 255 108 190 255 108
 190 255 108 190 255 108 190 255 108 190 255 108 190 255 108 190 82 207 255 82
 207 255 82 207 255 82 207 255 82 207 255 82 207 255 82 207 255 82 207 255
 82 207 255 255 213 232 255 213 232 255 213 232 255 213 232 255 213 232 255 213
 232 255 213 232 255 213 232 255 213 232 255 213 232 255 213 232 230 180 255 230
 180 255 230 180 255 230 180 255 230 180 255 230 180 255 230 180 255 230 180 255
 230 180 255 230 180 255 230 180 255 230 180 255 230 180 255 230 180 255 230 180
 255 160 255 171 160 255 171 160 255 171 160 255 171 160 255 171 160 255 171 160
 255 171 160 255 171 160 255 171 160 255 171 160 255 171 160 255 171 160 255 171
 160 255 171 160 255 171 160 255 171 160 255 171 160 255 171 160 255 171 160 255
 171 160 255 171 160 255 171 160 255 171 179 80 255 179 80 255 179 80 255 179
 80 255 179 80 255 179 80 255 179 80 255 179 80 255 179 80 255 179 80 255
 179 80 255 179 80 255 179 80 255 179 80 255 179 80 255 179 80 255 179 80
 255 179 80 255 179 80 255 179 80 255 179 80 255 179 80 255 179 80 255 179
 80 255 179 80 255 179 80 255 179 80 255 179 80 255 179 80 255 179 80 255
 179 80 255 179 80 255 66 255 119 66 255 119 66 255 119 66 255 119 66 255
 119 66 255 119 145 87 255 145 87 255 145 87 255 145 87 255 145 87 255 145
 87 255 145 87 255 145 87 255 145 87 255 145 87 255 145 87 255 145 87 255
 145 87 255 145 87 255 145 87 255 145 87 255 145 87 255 89 204 255 89 204
 255 89 204 255 89 204 255 89 204 255 89 204 255 89 204 255 89 204 255 89
 204 255 89 204 255 89 204 255 89 204 255 89 204 255 89 204 255 89 204 255
 89 204 255 110 109 255 110 109 255 110 109 255 110 109 255 110 109 255 110 109
 255 110 109 255 110 109 255 110 109 255 110 109 255 110 109 255 110 109 255 110
 109 255 110 109 255 110 109 255 110 109 255 110 109 255 110 109 255 110 109 255
 40 255 185 40 255 185 40 255 185 40 255 185 40 255 185 41 255 230 41 255
 230 41 255 230 41 255 230 41 255 230 41 255 230 41 255 230 41 255 230 41
 255 230 99 255 196 99 255 196 99 255 196 99 255 196 99 255 196 99 255 196
 99 255 196 170 255 237 170 255 237 170 255 237 170 255 237 155 210 255 155 210
 255 155 210 255 155 210 255 155 210 255 155 210 255 155 210 255 155 210 255 155
 210 255 155 210 255 155 210 255 255 108 190 255 108 190 255 108 190 255 108 190
 255 108 190 255 108 190 255 108 190 255 108 190 255 108 190 255 108 190 255 108
 190 255 108 190 255 108 190 255 108 190 255 108 190 255 108 190 82 207 255 82
 207 255 82 207 255 82 207 255 82 207 255 82 207 255 82 207 255 82 207 255
 255 213 232 255 213 232 255 213 232 255 213 232 255 213 232 255 213 232 255 213
 232 255 213 232 255 213 232 255 213 232 255 213 232 255 213 232 230 180 255 230
 180 255 230 180 255 230 180 255 230 180 255 230 180 255 230 180 255 230 180 255
 230 180 255 230 180 255 230 180 255 230 180 255 230 180 255 230 180 255 230 180
 255 230 180 255 160 255 171 160 255 171 160 255 171 160 255 171 160 255 171 160
 255 171 160 255 171 160 255 171 160 255 171 160 255 171 160 255 171 160 255 171
 160 255 171 160 255 171 160 255 171 160 255 171 160 255 171 160 255 171 160 255
 171 160 255 171 160 255 171 179 80 255 179 80 255 179 80 255 179 80 255 179
 80 255 179 80 255 179 80 255 179 80 255 179 80 255 179 80 255 179 80 255
 179 80 255 179 80 255 179 80 255 179 80 255 179 80 255 179 80 255 179 80
 255 179 80 255 179 80 255 179 80 255 179 80 255 179 80 255 179 80 255 179
 80 255 179 80 255 179 80 255 179 80 255 179 80 255 179 80 255 179 80 255
 179 80 255 179 80 255 66 255 119 66 255 119 66 255 119 66 255 119 66 255
 119 66 255 119 66 255 119 85 23 255 85 23 255 85 23 255 145 87 255 145
 87 255 145 87 255 145 87 255 145 87 255 145 87 255 145 87 255 145 87 255
 145 87 255 145 87 255 145 87 255 145 87 255 89 204 255 89 204 255 89 204
 255 89 204 255 89 204 255 89 204 255 89 204 255 89 204 255 89 204 255 89
 204 255 89 204 255 89 204 255 89 204 255 89 204 255 89 204 255 89 204 255
 110 109 255 110 109 255 110 109 255 110 109 255 110 109 255 110 109 255 110 109
 255 110 109 255 110 109 255 110 109 255 110 109 255 110 109 255 110 109 255 110
 109 255 110 109 255 110 109 255 110 109 255 110 109 255 110 109 255 110 109 255
 40 255 185 40 255 185 40 255 185 40 255 185 41 255 230 41 255 230 41 255
 230 41 255 230 41 255 230 41 255 230 41 255 230 41 255 230 41 255 230 41
 255 230 99 255 196 99 255 196 99 255 196 99 255 196 99 255 196 99 255 196
 99 255 196 170 255 237 170 255 237 170 255 237 170 255 237 170 255 237 155 210
 255 155 210 255 155 210 255 155 210 255 155 210 255 155 210 255 155 210 255 155
 210 255 155 210 255 155 210 255 155 210 255 255 108 190 255 108 190 255 108 190
 255 108 190 255 108 190 255 108 190 255 108 190 255 108 190 255 108 190 255 108
 190 255 108 190 255 108 190 255 108 190 255 108 190 255 108 190 82 207 255 82
 207 255 82 207 255 82 207 255 82 207 255 82 207 255 255 213 232 255 213 232
 255 213 232 255 213 232 255 213 232 255 213 232 255 213 232 255 213 232 255 213
 232 255 213 232 255 213 232 255 213 232 255 213 232 255 213 232 230 180 255 230
 180 255 230 180 255 230 180 255 230 180 255 230 180 255 230 180 255 230 180 255
 230 180 255 230 180 255 230 180 255 230 180 255 230 180 255 230 180 255 230 180
 255 230 180 255 230 180 255 160 255 171 160 255 171 160 255 171 160 255 171 160
 255 171 160 255 171 160 255 171 160 255 171 160 255 171 160 255 171 160 255 171
 160 255 171 160 255 171 160 255 171 160 255 171 160 255 171 160 255 171 160 255
 171 160 255 171 160 255 171 179 80 255 179 80 255 179 80 255 179 80 255 179
 80 255 179 80 255 179 80 255 179 80 255 179 80 255 179 80 255 179 80 255
 179 80 255 179 80 255 179 80 255 179 80 255 179 80 255 179 80 255 179 80
 255 179 80 255 179 80 255 179 80 255 179 80 255 179 80 255 179 80 255 179
 80 255 179 80 255 179 80 255 179 80 255 179 80 255 179 80 255 179 80 255
 179 80 255 66 255 119 66 255 119 66 255 119 66 255 119 66 255 119 66 255
 119 66 255 119 66 255 119 85 23 255 85 23 255 85 23 255 85 23 255 145
 87 255 145 87 255 145 87 255 145 87 255 145 87 255 145 87 255 145 87 255
 145 87 255 145 87 255 145 87 255 145 87 255 89 204 255 89 204 255 89 204
 255 89 204 255 89 204 255 89 204 255 89 204 255 89 204 255 89 204 255 89
 204 255 89 204 255 89 204 255 89 204 255 89 204 255 89 204 255 89 204 255
 110 109 255 110 109 255 110 109 255 110 109 255 110 109 255 110 109 255 110 109
 255 110 109 255 110 109 255 110 109 255 110 109 255 110 109 255 110 109 255 110
 109 255 110 109 255 110 109 255 110 109 255 110 109 255 110 109 255 110 109 255
 40 255 185 40 255 185 40 255 185 41 255 230 41 255 230 41 255 230 41 255
 230 41 255 230 41 255 230 41 255 230 41 255 230 41 255 230 41 255 230 41
 255 230 99 255 196 99 255 196 99 255 196 99 255 196 99 255 196 99 255 196
 99 255 196 170 255 237 170 255 237 170 255 237 170 255 237 170 255 237 155 210
 255 155 210 255 155 210 255 155 210 255 155 210 255 155 210 255 155 210 255 155
 210 255 155 210 255 155 210 255 255 108 190 255 108 190 255 108 190 255 108 190
 255 108 190 255 108 190 255 108 190 255 108 190 255 108 190 255 108 190 255 108
 190 255 108 190 255 108 190 255 108 190 255 108 190 255 108 190 82 207 255 82
 207 255 82 207 255 255 213 232 255 213 232 255 213 232 255 213 232 255 213 232
 255 213 232 255 213 232 255 213 232 255 213 232 255 213 232 255 213 232 255 213
 232 255 213 232 255 213 232 255 213 232 255 213 232 255 213 232 230 180 255 230
 180 255 230 180 255 230 180 255 230 180 255 230 180 255 230 180 255 230 180 255
 230 180 255 230 180 255 230 180 255 230 180 255 230 180 255 230 180 255 230 180
 255 230 180 255 230 180 255 230 180 255 160 255 171 160 255 171 160 255 171 160
 255 171 160 255 171 160 255 171 160 255 171 160 255 171 160 255 171 160 255 171
 160 255 171 160 255 171 160 255 171 160 255 171 160 255 171 160 255 171 160 255
 171 160 255 171 160 255 171 179 80 255 179 80 255 179 80 255 179 80 255 179
 80 255 179 80 255 179 80 255 179 80 255 179 80 255 179 80 255 179 80 255
 179 80 255 179 80 255 179 80 255 179 80 255 179 80 255 179 80 255 179 80
 255 179 80 255 179 80 255 179 80 255 179 80 255 179 80 255 179 80 255 179
 80 255 179 80 255 179 80 255 179 80 255 179 80 255 179 80 255 179 80 255
 179 80 255 66 255 119 66 255 119 66 255 119 66 255 119 66 255 119 66 255
 119 66 255 119 66 255 119 85 23 255 85 23 255 85 23 255 85 23 255 85
 23 255 85 23 255 85 23 255 85 23 255 85 23 255 85 23 255 85 23 255
 85 23 255 85 23 255 85 23 255 62 255 191 62 255 191 62 255 191 62 255
 191 62 255 191 62 255 191 62 255 191 62 255 191 62 255 191 62 255 191 89
 204 255 89 204 255 89 204 255 89 204 255 89 204 255 89 204 255 110 109 255
 110 109 255 110 109 255 110 109 255 110 109 255 110 109 255 110 109 255 110 109
 255 110 109 255 110 109 255 110 109 255 110 109 255 110 109 255 110 109 255 110
 109 255 110 109 255 110 109 255 110 109 255 110 109 255 110 109 255 110 109 255
 40 255 185 41 255 230 41 255 230 41 255 230 41 255 230 41 255 230 41 255
 230 41 255 230 41 255 230 41 255 230 41 255 230 41 255 230 41 255 230 41
 255 230 99 255 196 99 255 196 99 255 196 99 255 196 99 255 196 99 255 196
 99 255 196 170 255 237 170 255 237 170 255 237 170 255 237 170 255 237 170 255
 237 155 210 255 155 210 255 155 210 255 155 210 255 155 210 255 155 210 255 155
 210 255 155 210 255 155 210 255 255 108 190 255 108 190 255 108 190 255 108 190
 255 108 190 255 108 190 255 108 190 255 108 190 255 108 190 255 108 190 255 108
 190 255 108 190 255 108 190 255 108 190 255 108 190 255 108 190 255 213 232 255
 213 232 255 213 232 255 213 232 255 213 232 255 213 232 255 213 232 255 213 232
 255 213 232 255 213 232 255 213 232 255 213 232 255 213 232 255 213 232 255 213
 232 255 213 232 255 213 232 255 213 232 255 213 232 255 213 232 230 180 255 230
 180 255 230 180 255 230 180 255 230 180 255 230 180 255 230 180 255 230 180 255
 230 180 255 230 180 255 230 180 255 230 180 255 230 180 255 230 180 255 230 180
 255 230 180 255 230 180 255 230 180 255 230 180 255 160 255 171 160 255 171 160
 255 171 160 255 171 160 255 171 160 255 171 160 255 171 160 255 171 160 255 171
 160 255 171 160 255 171 160 255 171 160 255 171 160 255 171 160 255 171 160 255
 171 160 255 171 179 80 255 179 80 255 179 80 255 179 80 255 179 80 255 179
 80 255 179 80 255 179 80 255 179 80 255 179 80 255 179 80 255 179 80 255
 179 80 255 179 80 255 179 80 255 179 80 255 179 80 255 179 80 255 179 80
 255 179 80 255 179 80 255 179 80 255 179 80 255 179 80 255 179 80 255 179
 80 255 179 80 255 179 80 255 179 80 255 179 80 255 179 80 255 179 80 255
 66 255 119 66 255 119 66 255 119 66 255 119 66 255 119 66 255 119 66 255
 119 66 255 119 66 255 119 85 23 255 85 23 255 85 23 255 85 23 255 85
 23 255 85 23 255 85 23 255 85 23 255 85 23 255 85 23 255 85 23 255
 85 23 255 85 23 255 85 23 255 62 255 191 62 255 191 62 255 191 62 255
 191 62 255 191 62 255 191 62 255 191 62 255 191 62 255 191 62 255 191 62
 255 191 89 204 255 89 204 255 89 204 255 89 204 255 110 109 255 110 109 255
 110 109 255 110 109 255 110 109 255 110 109 255 110 109 255 110 109 255 110 109
 255 110 109 255 110 109 255 110 109 255 110 109 255 110 109 255 110 109 255 110
 109 255 110 109 255 110 109 255 110 109 255 110 109 255 110 109 255 110 109 255
 41 255 230 41 255 230 41 255 230 41 255 230 41 255 230 41 255 230 41 255
 230 41 255 230 41 255 230 41 255 230 41 255 230 41 255 230 41 255 230 41
 255 230 99 255 196 99 255 196 99 255 196 99 255 196 99 255 196 99 255 196
 99 255 196 170 255 237 170 255 237 170 255 237 170 255 237 170 255 237 170 255
 237 170 255 237 155 210 255 155 210 255 155 210 255 155 210 255 155 210 255 155
 210 255 155 210 255 155 210 255 255 108 190 255 108 190 255 108 190 255 108 190
 255 108 190 255 108 190 255 108 190 255 108 190 255 108 190 255 108 190 255 108
 190 255 108 190 255 108 190 255 108 190 255 108 190 255 108 190 255 213 232 255
 213 232 255 213 232 255 213 232 255 213 232 255 213 232 255 213 232 255 213 232
 255 213 232 255 213 232 255 213 232 255 213 232 255 213 232 255 213 232 255 213
 232 255 213 232 255 213 232 255 213 232 255 213 232 255 213 232 255 213 232 230
 180 255 230 180 255 230 180 255 230 180 255 230 180 255 230 180 255 230 180 255
 230 180 255 230 180 255 230 180 255 230 180 255 230 180 255 230 180 255 230 180
 255 230 180 255 230 180 255 230 180 255 230 180 255 230 180 255 160 255 171 160
 255 171 160 255 171 160 255 171 160 255 171 160 255 171 160 255 171 160 255 171
 160 255 171 160 255 171 160 255 171 160 255 171 160 255 171 160 255 171 160 255
 171 160 255 171 179 80 255 179 80 255 179 80 255 179 80 255 179 80 255 179
 80 255 179 80 255 179 80 255 179 80 255 179 80 255 179 80 255 179 80 255
 179 80 255 179 80 255 179 80 255 179 80 255 179 80 255 179 80 255 179 80
 255 179 80 255 179 80 255 179 80 255 179 80 255 179 80 255 179 80 255 179
 80 255 179 80 255 179 80 255 179 80 255 179 80 255 179 80 255 66 255 119
 66 255 119 66 255 119 66 255 119 66 255 119 66 255 119 66 255 119 66 255
 119 66 255 119 66 255 119 85 23 255 85 23 255 85 23 255 85 23 255 85
 23 255 85 23 255 85 23 255 85 23 255 85 23 255 85 23 255 85 23 255
 85 23 255 85 23 255 85 23 255 62 255 191 62 255 191 62 255 191 62 255
 191 62 255 191 62 255 191 62 255 191 62 255 191 62 255 191 62 255 191 62
 255 191 62 255 191 62 255 191 89 204 255 89 204 255 110 109 255 110 109 255
 110 109 255 110 109 255 110 109 255 110 109 255 110 109 255 110 109 255 110 109
 255 110 109 255 110 109 255 110 109 255 110 109 255 110 109 255 110 109 255 110
 109 255 110 109 255 110 109 255 110 109 255 110 109 255 110 109 255 110 109 255
 41 255 230 41 255 230 41 255 230 41 255 230 41 255 230 41 255 230 41 255
 230 41 255 230 41 255 230 41 255 230 41 255 230 41 255 230 41 255 230 41
 255 230 99 255 196 99 255 196 99 255 196 99 255 196 99 255 196 99 255 196
 99 255 196 99 255 196 170 255 237 170 255 237 170 255 237 170 255 237 170 255
 237 203 48 255 203 48 255 203 48 255 155 210 255 155 210 255 155 210 255 155
 210 255 155 210 255 155 210 255 255 108 190 255 108 190 255 108 190 255 108 190
 255 108 190 255 108 190 255 108 190 255 108 190 255 108 190 255 108 190 255 108
 190 255 108 190 255 108 190 255 108 190 255 108 190 255 213 232 255 213 232 255
 213 232 255 213 232 255 213 232 255 213 232 255 213 232 255 213 232 255 213 232
 255 213 232 255 213 232 255 213 232 255 213 232 255 213 232 255 213 232 255 213
 232 255 213 232 255 213 232 255 213 232 255 213 232 255 213 232 255 213 232 230
 180 255 230 180 255 230 180 255 230 180 255 230 180 255 230 180 255 230 180 255
 230 180 255 230 180 255 230 180 255 230 180 255 230 180 255 230 180 255 230 180
 255 230 180 255 230 180 255 230 180 255 230 180 255 230 180 255 160 255 171 160
 255 171 160 255 171 160 255 171 160 255 171 160 255 171 160 255 171 160 255 171
 160 255 171 160 255 171 255 226 224 255 226 224 255 226 224 255 226 224 255 226
 224 255 226 224 255 226 224 179 80 255 179 80 255 179 80 255 179 80 255 179
 80 255 179 80 255 179 80 255 179 80 255 179 80 255 179 80 255 179 80 255
 179 80 255 179 80 255 179 80 255 179 80 255 179 80 255 179 80 255 179 80
 255 179 80 255 179 80 255 179 80 255 179 80 255 179 80 255 179 80 255 179
 80 255 179 80 255 179 80 255 179 80 255 179 80 255 66 255 119 66 255 119
 66 255 119 66 255 119 66 255 119 66 255 119 66 255 119 66 255 119 66 255
 119 66 255 119 66 255 119 85 23 255 85 23 255 85 23 255 85 23 255 85
 23 255 85 23 255 85 23 255 85 23 255 85 23 255 85 23 255 85 23 255
 85 23 255 85 23 255 85 23 255 62 255 191 62 255 191 62 255 191 62 255
 191 62 255 191 62 255 191 62 255 191 62 255 191 62 255 191 62 255 191 62
 255 191 62 255 191 62 255 191 62 255 191 110 109 255 110 109 255 110 109 255
 110 109 255 110 109 255 110 109 255 110 109 255 110 109 255 110 109 255 110 109
 255 110 109 255 110 109 255 110 109 255 110 109 255 110 109 255 110 109 255 110
 109 255 110 109 255 110 109 255 110 109 255 110 109 255 110 109 255 110 109 255
 41 255 230 41 255 230 41 255 230 41 255 230 41 255 230 41 255 230 41 255
 230 41 255 230 41 255 230 41 255 230 41 255 230 41 255 230 41 255 230 41
 255 230 99 255 196 99 255 196 99 255 196 99 255 196 99 255 196 99 255 196
 99 255 196 99 255 196 170 255 237 170 255 237 170 255 237 170 255 237 170 255
 237 203 48 255 203 48 255 203 48 255 203 48 255 203 48 255 155 210 255 155
 210 255 155 210 255 255 108 190 255 108 190 255 108 190 255 108 190 255 108 190
 255 108 190 255 108 190 255 108 190 255 108 190 255 108 190 255 108 190 255 108
 190 255 108 190 255 108 190 255 108 190 255 108 190 255 213 232 255 213 232 255
 213 232 255 213 232 255 213 232 255 213 232 255 213 232 255 213 232 255 213 232
 255 213 232 255 213 232 255 213 232 255 213 232 255 213 232 255 213 232 255 213
 232 255 213 232 255 213 232 255 213 232 255 213 232 255 213 232 255 213 232 255
 213 232 230 180 255 230 180 255 230 180 255 230 180 255 230 180 255 230 180 255
 230 180 255 230 180 255 230 180 255 230 180 255 230 180 255 230 180 255 230 180
 255 230 180 255 230 180 255 230 180 255 230 180 255 230 180 255 160 255 171 160
 255 171 160 255 171 160 255 171 160 255 171 160 255 171 160 255 171 160 255 171
 255 226 224 255 226 224 255 226 224 255 226 224 255 226 224 255 226 224 255 226
 224 255 226 224 255 226 224 255 226 224 179 80 255 179 80 255 179 80 255 179
 80 255 179 80 255 179 80 255 179 80 255 179 80 255 179 80 255 179 80 255
 179 80 255 179 80 255 179 80 255 179 80 255 179 80 255 179 80 255 179 80
 255 179 80 255 179 80 255 179 80 255 179 80 255 179 80 255 179 80 255 179
 80 255 179 80 255 179 80 255 179 80 255 179 80 255 66 255 119 66 255 119
 66 255 119 66 255 119 66 255 119 66 255 119 66 255 119 66 255 119 66 255
 119 66 255 119 66 255 119 85 23 255 85 23 255 85 23 255 85 23 255 85
 23 255 85 23 255 85 23 255 85 23 255 85 23 255 85 23 255 85 23 255
 85 23 255 85 23 255 85 23 255 62 255 191 62 255 191 62 255 191 62 255
 191 62 255 191 62 255 191 62 255 191 62 255 191 62 255 191 62 255 191 62
 255 191 62 255 191 62 255 191 62 255 191 255 104 220 110 109 255 110 109 255
 110 109 255 110 109 255 110 109 255 110 109 255 110 109 255 110 109 255 110 109
 255 110 109 255 110 109 255 110 109 255 110 109 255 110 109 255 110 109 255 110
 109 255 110 109 255 110 109 255 110 109 255 110 109 255 110 109 255 110 109 255
 41 255 230 41 255 230 41 255 230 41 255 230 41 255 230 41 255 230 41 255
 230 41 255 230 41 255 230 41 255 230 41 255 230 41 255 230 41 255 230 41
 255 230 99 255 196 99 255 196 99 255 196 99 255 196 99 255 196 99 255 196
 99 255 196 99 255 196 170 255 237 170 255 237 170 255 237 170 255 237 170 255
 237 203 48 255 203 48 255 203 48 255 203 48 255 203 48 255 203 48 255 203
 48 255 203 48 255 255 108 190 255 108 190 255 108 190 255 108 190 255 108 190
 255 108 190 255 108 190 255 108 190 255 108 190 255 108 190 255 108 190 255 108
 190 255 108 190 255 170 193 255 170 193 255 170 193 255 213 232 255 213 232 255
 213 232 255 213 232 255 213 232 255 213 232 255 213 232 255 213 232 255 213 232
 255 213 232 255 213 232 255 213 232 255 213 232 255 213 232 255 213 232 255 213
 232 255 213 232 255 213 232 255 213 232 255 213 232 255 213 232 255 213 232 255
 213 232 255 89 85 255 89 85 255 89 85 230 180 255 230 180 255 230 180 255
 230 180 255 230 180 255 230 180 255 230 180 255 230 180 255 230 180 255 230 180
 255 230 180 255 230 180 255 230 180 255 230 180 255 230 180 255 160 255 171 160
 255 171 160 255 171 160 255 171 160 255 171 160 255 171 160 255 171 255 226 224
 255 226 224 255 226 224 255 226 224 255 226 224 255 226 224 255 226 224 255 226
 224 255 226 224 255 226 224 255 226 224 255 226 224 179 80 255 179 80 255 179
 80 255 179 80 255 179 80 255 179 80 255 179 80 255 179 80 255 179 80 255
 179 80 255 179 80 255 179 80 255 179 80 255 179 80 255 179 80 255 179 80
 255 179 80 255 179 80 255 179 80 255 179 80 255 179 80 255 179 80 255 179
 80 255 179 80 255 179 80 255 179 80 255 179 80 255 66 255 119 66 255 119
 66 255 119 66 255 119 66 255 119 66 255 119 66 255 119 66 255 119 66 255
 119 66 255 119 85 23 255 85 23 255 85 23 255 85 23 255 85 23 255 85
 23 255 85 23 255 85 23 255 85 23 255 85 23 255 85 23 255 85 23 255
 85 23 255 85 23 255 85 23 255 62 255 191 62 255 191 62 255 191 62 255
 191 62 255 191 62 255 191 62 255 191 62 255 191 62 255 191 62 255 191 62
 255 191 62 255 191 62 255 191 255 104 220 255 104 220 255 104 220 255 104 220
 110 109 255 110 109 255 110 109 255 110 109 255 110 109 255 110 109 255 110 109
 255 110 109 255 110 109 255 110 109 255 110 109 255 110 109 255 110 109 255 110
 109 255 110 109 255 110 109 255 110 109 255 110 109 255 110 109 255 110 109 255
 41 255 230 41 255 230 41 255 230 41 255 230 41 255 230 41 255 230 41 255
 230 41 255 230 41 255 230 41 255 230 41 255 230 41 255 230 41 255 230 41
 255 230 99 255 196 99 255 196 99 255 196 99 255 196 99 255 196 99 255 196
 99 255 196 99 255 196 170 255 237 170 255 237 170 255 237 170 255 237 203 48
 255 203 48 255 203 48 255 203 48 255 203 48 255 203 48 255 203 48 255 203
 48 255 203 48 255 203 48 255 255 108 190 255 108 190 255 108 190 255 108 190
 255 108 190 255 108 190 255 108 190 255 108 190 255 108 190 255 108 190 255 108
 190 255 170 193 255 170 193 255 170 193 255 170 193 255 170 193 255 213 232 255
 213 232 255 213 232 255 213 232 255 213 232 255 213 232 255 213 232 255 213 232
 255 213 232 255 213 232 255 213 232 255 213 232 255 213 232 255 213 232 255 213
 232 255 213 232 255 213 232 255 213 232 255 213 232 255 213 232 255 213 232 255
 89 85 255 89 85 255 89 85 255 89 85 255 89 85 255 89 85 255 89 85
 230 180 255 230 180 255 230 180 255 230 180 255 230 180 255 230 180 255 230 180
 255 230 180 255 230 180 255 110 181 255 110 181 255 110 181 255 110 181 255 110
 181 255 110 181 255 110 181 255 110 181 255 110 181 255 255 226 224 255 226 224
 255 226 224 255 226 224 255 226 224 255 226 224 255 226 224 255 226 224 255 226
 224 255 226 224 255 226 224 255 226 224 255 226 224 255 226 224 179 80 255 179
 80 255 179 80 255 179 80 255 179 80 255 179 80 255 179 80 255 179 80 255
 179 80 255 179 80 255 179 80 255 179 80 255 179 80 255 179 80 255 179 80
 255 179 80 255 179 80 255 179 80 255 179 80 255 179 80 255 179 80 255 179
 80 255 179 80 255 179 80 255 179 80 255 179 80 255 66 255 119 66 255 119
 66 255 119 66 255 119 66 255 119 66 255 119 66 255 119 66 255 119 66 255
 119 66 255 119 85 23 255 85 23 255 85 23 255 85 23 255 85 23 255 85
 23 255 85 23 255 85 23 255 85 23 255 85 23 255 85 23 255 85 23 255
 85 23 255 85 23 255 85 23 255 62 255 191 62 255 191 62 255 191 62 255