# vtk DataFile Version 2.0
Data set from ImportExport Version 6.5.163.1998a502a
ASCII

DATASET RECTILINEAR_GRID
DIMENSIONS 401 2 401
X_COORDINATES 401 float
-2.500000 2.500000 7.500000 12.500000 17.500000 22.500000 27.500000 32.500000 37.500000 42.500000 47.500000 52.500000 57.500000 62.500000 67.500000 72.500000 77.500000 82.500000 87.500000 92.500000 97.500000 
102.500000 107.500000 112.500000 117.500000 122.500000 127.500000 132.500000 137.500000 142.500000 147.500000 152.500000 157.500000 162.500000 167.500000 172.500000 177.500000 182.500000 187.500000 192.500000 197.500000 
202.500000 207.500000 212.500000 217.500000 222.500000 227.500000 232.500000 237.500000 242.500000 247.500000 252.500000 257.500000 262.500000 267.500000 272.500000 277.500000 282.500000 287.500000 292.500000 297.500000 
302.500000 307.500000 312.500000 317.500000 322.500000 327.500000 332.500000 337.500000 342.500000 347.500000 352.500000 357.500000 362.500000 367.500000 372.500000 377.500000 382.500000 387.500000 392.500000 397.500000 
402.500000 407.500000 412.500000 417.500000 422.500000 427.500000 432.500000 437.500000 442.500000 447.500000 452.500000 457.500000 462.500000 467.500000 472.500000 477.500000 482.500000 487.500000 492.500000 497.500000 
502.500000 507.500000 512.500000 517.500000 522.500000 527.500000 532.500000 537.500000 542.500000 547.500000 552.500000 557.500000 562.500000 567.500000 572.500000 577.500000 582.500000 587.500000 592.500000 597.500000 
602.500000 607.500000 612.500000 617.500000 622.500000 627.500000 632.500000 637.500000 642.500000 647.500000 652.500000 657.500000 662.500000 667.500000 672.500000 677.500000 682.500000 687.500000 692.500000 697.500000 
702.500000 707.500000 712.500000 717.500000 722.500000 727.500000 732.500000 737.500000 742.500000 747.500000 752.500000 757.500000 762.500000 767.500000 772.500000 777.500000 782.500000 787.500000 792.500000 797.500000 
802.500000 807.500000 812.500000 817.500000 822.500000 827.500000 832.500000 837.500000 842.500000 847.500000 852.500000 857.500000 862.500000 867.500000 872.500000 877.500000 882.500000 887.500000 892.500000 897.500000 
902.500000 907.500000 912.500000 917.500000 922.500000 927.500000 932.500000 937.500000 942.500000 947.500000 952.500000 957.500000 962.500000 967.500000 972.500000 977.500000 982.500000 987.500000 992.500000 997.500000 
1002.500000 1007.500000 1012.500000 1017.500000 1022.500000 1027.500000 1032.500000 1037.500000 1042.500000 1047.500000 1052.500000 1057.500000 1062.500000 1067.500000 1072.500000 1077.500000 1082.500000 1087.500000 1092.500000 1097.500000 
1102.500000 1107.500000 1112.500000 1117.500000 1122.500000 1127.500000 1132.500000 1137.500000 1142.500000 1147.500000 1152.500000 1157.500000 1162.500000 1167.500000 1172.500000 1177.500000 1182.500000 1187.500000 1192.500000 1197.500000 
1202.500000 1207.500000 1212.500000 1217.500000 1222.500000 1227.500000 1232.500000 1237.500000 1242.500000 1247.500000 1252.500000 1257.500000 1262.500000 1267.500000 1272.500000 1277.500000 1282.500000 1287.500000 1292.500000 1297.500000 
1302.500000 1307.500000 1312.500000 1317.500000 1322.500000 1327.500000 1332.500000 1337.500000 1342.500000 1347.500000 1352.500000 1357.500000 1362.500000 1367.500000 1372.500000 1377.500000 1382.500000 1387.500000 1392.500000 1397.500000 
1402.500000 1407.500000 1412.500000 1417.500000 1422.500000 1427.500000 1432.500000 1437.500000 1442.500000 1447.500000 1452.500000 1457.500000 1462.500000 1467.500000 1472.500000 1477.500000 1482.500000 1487.500000 1492.500000 1497.500000 
1502.500000 1507.500000 1512.500000 1517.500000 1522.500000 1527.500000 1532.500000 1537.500000 1542.500000 1547.500000 1552.500000 1557.500000 1562.500000 1567.500000 1572.500000 1577.500000 1582.500000 1587.500000 1592.500000 1597.500000 
1602.500000 1607.500000 1612.500000 1617.500000 1622.500000 1627.500000 1632.500000 1637.500000 1642.500000 1647.500000 1652.500000 1657.500000 1662.500000 1667.500000 1672.500000 1677.500000 1682.500000 1687.500000 1692.500000 1697.500000 
1702.500000 1707.500000 1712.500000 1717.500000 1722.500000 1727.500000 1732.500000 1737.500000 1742.500000 1747.500000 1752.500000 1757.500000 1762.500000 1767.500000 1772.500000 1777.500000 1782.500000 1787.500000 1792.500000 1797.500000 
1802.500000 1807.500000 1812.500000 1817.500000 1822.500000 1827.500000 1832.500000 1837.500000 1842.500000 1847.500000 1852.500000 1857.500000 1862.500000 1867.500000 1872.500000 1877.500000 1882.500000 1887.500000 1892.500000 1897.500000 
1902.500000 1907.500000 1912.500000 1917.500000 1922.500000 1927.500000 1932.500000 1937.500000 1942.500000 1947.500000 1952.500000 1957.500000 1962.500000 1967.500000 1972.500000 1977.500000 1982.500000 1987.500000 1992.500000 1997.500000 

Y_COORDINATES 2 float
-0.500000 0.500000 
Z_COORDINATES 401 float
-2.500000 2.500000 7.500000 12.500000 17.500000 22.500000 27.500000 32.500000 37.500000 42.500000 47.500000 52.500000 57.500000 62.500000 67.500000 72.500000 77.500000 82.500000 87.500000 92.500000 97.500000 
102.500000 107.500000 112.500000 117.500000 122.500000 127.500000 132.500000 137.500000 142.500000 147.500000 152.500000 157.500000 162.500000 167.500000 172.500000 177.500000 182.500000 187.500000 192.500000 197.500000 
202.500000 207.500000 212.500000 217.500000 222.500000 227.500000 232.500000 237.500000 242.500000 247.500000 252.500000 257.500000 262.500000 267.500000 272.500000 277.500000 282.500000 287.500000 292.500000 297.500000 
302.500000 307.500000 312.500000 317.500000 322.500000 327.500000 332.500000 337.500000 342.500000 347.500000 352.500000 357.500000 362.500000 367.500000 372.500000 377.500000 382.500000 387.500000 392.500000 397.500000 
402.500000 407.500000 412.500000 417.500000 422.500000 427.500000 432.500000 437.500000 442.500000 447.500000 452.500000 457.500000 462.500000 467.500000 472.500000 477.500000 482.500000 487.500000 492.500000 497.500000 
502.500000 507.500000 512.500000 517.500000 522.500000 527.500000 532.500000 537.500000 542.500000 547.500000 552.500000 557.500000 562.500000 567.500000 572.500000 577.500000 582.500000 587.500000 592.500000 597.500000 
602.500000 607.500000 612.500000 617.500000 622.500000 627.500000 632.500000 637.500000 642.500000 647.500000 652.500000 657.500000 662.500000 667.500000 672.500000 677.500000 682.500000 687.500000 692.500000 697.500000 
702.500000 707.500000 712.500000 717.500000 722.500000 727.500000 732.500000 737.500000 742.500000 747.500000 752.500000 757.500000 762.500000 767.500000 772.500000 777.500000 782.500000 787.500000 792.500000 797.500000 
802.500000 807.500000 812.500000 817.500000 822.500000 827.500000 832.500000 837.500000 842.500000 847.500000 852.500000 857.500000 862.500000 867.500000 872.500000 877.500000 882.500000 887.500000 892.500000 897.500000 
902.500000 907.500000 912.500000 917.500000 922.500000 927.500000 932.500000 937.500000 942.500000 947.500000 952.500000 957.500000 962.500000 967.500000 972.500000 977.500000 982.500000 987.500000 992.500000 997.500000 
1002.500000 1007.500000 1012.500000 1017.500000 1022.500000 1027.500000 1032.500000 1037.500000 1042.500000 1047.500000 1052.500000 1057.500000 1062.500000 1067.500000 1072.500000 1077.500000 1082.500000 1087.500000 1092.500000 1097.500000 
1102.500000 1107.500000 1112.500000 1117.500000 1122.500000 1127.500000 1132.500000 1137.500000 1142.500000 1147.500000 1152.500000 1157.500000 1162.500000 1167.500000 1172.500000 1177.500000 1182.500000 1187.500000 1192.500000 1197.500000 
1202.500000 1207.500000 1212.500000 1217.500000 1222.500000 1227.500000 1232.500000 1237.500000 1242.500000 1247.500000 1252.500000 1257.500000 1262.500000 1267.500000 1272.500000 1277.500000 1282.500000 1287.500000 1292.500000 1297.500000 
1302.500000 1307.500000 1312.500000 1317.500000 1322.500000 1327.500000 1332.500000 1337.500000 1342.500000 1347.500000 1352.500000 1357.500000 1362.500000 1367.500000 1372.500000 1377.500000 1382.500000 1387.500000 1392.500000 1397.500000 
1402.500000 1407.500000 1412.500000 1417.500000 1422.500000 1427.500000 1432.500000 1437.500000 1442.500000 1447.500000 1452.500000 1457.500000 1462.500000 1467.500000 1472.500000 1477.500000 1482.500000 1487.500000 1492.500000 1497.500000 
1502.500000 1507.500000 1512.500000 1517.500000 1522.500000 1527.500000 1532.500000 1537.500000 1542.500000 1547.500000 1552.500000 1557.500000 1562.500000 1567.500000 1572.500000 1577.500000 1582.500000 1587.500000 1592.500000 1597.500000 
1602.500000 1607.500000 1612.500000 1617.500000 1622.500000 1627.500000 1632.500000 1637.500000 1642.500000 1647.500000 1652.500000 1657.500000 1662.500000 1667.500000 1672.500000 1677.500000 1682.500000 1687.500000 1692.500000 1697.500000 
1702.500000 1707.500000 1712.500000 1717.500000 1722.500000 1727.500000 1732.500000 1737.500000 1742.500000 1747.500000 1752.500000 1757.500000 1762.500000 1767.500000 1772.500000 1777.500000 1782.500000 1787.500000 1792.500000 1797.500000 
1802.500000 1807.500000 1812.500000 1817.500000 1822.500000 1827.500000 1832.500000 1837.500000 1842.500000 1847.500000 1852.500000 1857.500000 1862.500000 1867.500000 1872.500000 1877.500000 1882.500000 1887.500000 1892.500000 1897.500000 
1902.500000 1907.500000 1912.500000 1917.500000 1922.500000 1927.500000 1932.500000 1937.500000 1942.500000 1947.500000 1952.500000 1957.500000 1962.500000 1967.500000 1972.500000 1977.500000 1982.500000 1987.500000 1992.500000 1997.500000 

CELL_DATA 160000
SCALARS FeatureIds int 1
LOOKUP_TABLE default
 775 775 775 775 775 775 775 526 526 526 526 526 526 526 526 526 526 526 526 526
 526 526 526 526 526 1035 1035 1035 1035 1035 1035 1035 1035 1035 1035 1035 1035 1035 1035 1035
 1035 1035 1035 1035 1035 657 657 657 657 657 657 657 657 657 657 657 657 657 657 657
 657 657 657 657 657 657 657 70 70 70 70 70 70 70 70 70 70 70 70 70
 70 664 664 664 664 664 664 664 664 664 664 664 664 664 664 664 659 659 659 659
 659 659 659 659 659 659 659 659 659 659 659 659 659 659 659 659 659 107 107 107
 107 107 107 107 107 107 726 726 726 726 800 800 800 800 800 800 800 800 800 800
 800 800 800 800 800 800 800 800 800 800 800 800 800 800 178 178 328 328 328 328
 328 328 328 328 328 328 328 328 328 328 328 1064 1064 1064 1064 1064 1064 1064 1064 1064
 1064 1064 1064 1064 1064 1064 1064 1064 1064 746 746 746 746 746 746 746 746 746 931 931
 12 12 12 12 12 12 12 12 12 12 12 12 12 12 12 12 12 12 12 12
 12 12 12 12 12 113 113 113 113 113 113 113 113 113 113 113 113 113 113 113
 113 113 113 113 109 109 109 109 109 109 109 109 109 109 109 109 109 109 109 109
 109 109 109 109 109 907 907 907 907 907 907 907 907 907 907 907 907 907 907 907
 907 907 907 907 907 65 65 65 65 65 65 65 65 65 65 65 65 65 65 65
 65 65 65 65 65 65 65 65 65 65 65 217 217 217 217 217 217 217 217 217
 217 217 282 282 282 282 282 282 282 282 282 282 282 282 282 282 282 282 282 282
 282 282 282 282 282 282 282 282 291 291 291 975 975 975 975 975 975 975 975 975
 975 975 975 975 975 975 975 975 975 975 975 975 124 124 124 124 124 124 124 124
 124 124 124 124 124 124 124 124 852 852 852 852 852 852 852 852 852 852 852 852
 775 775 775 775 775 775 775 526 526 526 526 526 526 526 526 526 526 526 526 526
 526 526 526 526 526 1035 1035 1035 1035 1035 1035 1035 1035 1035 1035 1035 1035 1035 1035 1035
 1035 1035 1035 1035 1035 657 657 657 657 657 657 657 657 657 657 657 657 657 657 657
 657 657 657 657 657 657 657 70 70 70 70 70 70 70 70 70 70 70 70 70
 70 664 664 664 664 664 664 664 664 664 664 664 664 664 664 664 659 659 659 659
 659 659 659 659 659 659 659 659 659 659 659 659 659 659 659 659 659 107 107 107
 107 107 107 107 107 107 726 726 726 726 800 800 800 800 800 800 800 800 800 800
 800 800 800 800 800 800 800 800 800 800 800 800 800 800 178 178 328 328 328 328
 328 328 328 328 328 328 328 328 328 328 328 1064 1064 1064 1064 1064 1064 1064 1064 1064
 1064 1064 1064 1064 1064 1064 1064 1064 1064 746 746 746 746 746 746 746 746 746 931 931
 931 931 12 12 12 12 12 12 12 12 12 12 12 12 12 12 12 12 12 12
 12 12 12 12 12 113 113 113 113 113 113 113 113 113 113 113 113 113 113 113
 113 113 113 113 109 109 109 109 109 109 109 109 109 109 109 109 109 109 109 109
 109 109 109 109 109 907 907 907 907 907 907 907 907 907 907 907 907 907 907 907
 907 907 907 907 907 65 65 65 65 65 65 65 65 65 65 65 65 65 65 65
 65 65 65 65 65 65 65 65 65 65 65 217 217 217 217 217 217 217 217 217
 217 217 282 282 282 282 282 282 282 282 282 282 282 282 282 282 282 282 282 282
 282 282 282 282 282 282 282 282 291 291 291 975 975 975 975 975 975 975 975 975
 975 975 975 975 975 975 975 975 975 975 975 975 124 124 124 124 124 124 124 124
 124 124 124 124 124 124 124 124 852 852 852 852 852 852 852 852 852 852 852 852
 775 775 775 775 775 775 775 526 526 526 526 526 526 526 526 526 526 526 526 526
 526 526 526 526 526 526 1035 1035 1035 1035 1035 1035 1035 1035 1035 1035 1035 1035 1035 1035
 1035 1035 1035 1035 1035 657 657 657 657 657 657 657 657 657 657 657 657 657 657 657
 657 657 657 657 657 657 657 70 70 70 70 70 70 70 70 70 70 70 70 70
 70 664 664 664 664 664 664 664 664 664 664 664 664 664 664 664 664 659 659 659
 659 659 659 659 659 659 659 659 659 659 659 659 659 659 659 659 107 107 107 107
 107 107 107 107 107 107 726 726 726 726 726 726 800 800 800 800 800 800 800 800
 800 800 800 800 800 800 800 800 800 800 800 178 178 178 178 178 328 328 328 328
 328 328 328 328 328 328 328 328 328 328 328 1064 1064 1064 1064 1064 1064 1064 1064 1064
 1064 1064 1064 1064 1064 1064 1064 1064 1064 746 746 746 746 746 746 746 746 746 931 931
 931 931 931 931 931 12 12 12 12 12 12 12 12 12 12 12 12 12 12 12
 12 12 12 12 12 12 113 113 113 113 113 113 113 113 113 113 940 940 940 940
 940 940 940 940 109 109 109 109 109 109 109 109 109 109 109 109 109 109 109 109
 109 109 109 109 109 907 907 907 907 907 907 907 907 907 907 907 907 907 907 907
 907 907 907 907 907 65 65 65 65 65 65 65 65 65 65 65 65 65 65 65
 65 65 65 65 65 65 65 65 65 65 65 217 217 217 217 217 217 217 217 217
 217 217 217 282 282 282 282 282 282 282 282 282 282 282 282 282 282 282 282 282
 282 282 282 282 282 282 291 291 291 291 291 975 975 975 975 975 975 975 975 975
 975 975 975 975 975 975 975 975 975 975 975 975 124 124 124 124 124 124 124 124
 124 124 124 124 124 124 124 124 852 852 852 852 852 852 852 852 852 852 852 852
 775 775 775 775 775 775 775 775 526 526 526 526 526 526 526 526 526 526 526 526
 526 526 526 526 526 526 526 1035 1035 1035 1035 1035 1035 1035 1035 1035 1035 1035 1035 1035
 1035 1035 1035 1035 657 657 657 657 657 657 657 657 657 657 657 657 657 657 657 657
 657 657 657 657 657 657 657 70 70 70 70 70 70 70 70 70 70 70 70 70
 70 664 664 664 664 664 664 664 664 664 664 664 664 664 664 664 664 664 659 659
 659 659 659 659 659 659 659 659 659 659 659 659 659 659 659 659 107 107 107 107
 107 107 107 107 107 107 726 726 726 726 726 726 726 726 800 800 800 800 800 800
 800 800 800 800 800 178 178 178 178 178 178 178 178 178 178 178 328 328 328 328
 328 328 328 328 328 328 328 328 328 328 328 328 328 328 1064 1064 1064 1064 1064 1064
 1064 1064 1064 1064 1064 1064 1064 1064 746 746 746 746 746 746 746 746 746 746 931 931
 931 931 931 931 931 931 931 931 931 931 931 931 12 12 12 12 12 12 12 12
 12 12 12 12 12 12 113 113 113 113 113 113 113 113 940 940 940 940 940 940
 940 940 940 940 109 109 109 109 109 109 109 109 109 109 109 109 109 109 109 109
 109 109 109 109 109 907 907 907 907 907 907 907 907 907 907 907 907 907 907 907
 907 907 907 907 907 65 65 65 65 65 65 65 65 65 65 65 65 65 65 65
 65 65 65 65 65 65 65 65 65 65 65 217 217 217 217 217 217 217 217 217
 217 217 217 217 282 282 282 282 282 282 282 282 282 282 282 282 291 291 291 291
 291 291 291 291 291 291 291 291 291 291 291 975 975 975 975 975 975 975 975 975
 975 975 975 975 975 975 975 975 975 124 124 124 124 124 124 124 124 124 124 124
 124 124 124 124 124 124 124 124 852 852 852 852 852 852 852 852 852 852 852 852
 775 775 775 775 775 775 775 775 775 526 526 526 526 526 526 526 526 526 526 526
 526 526 526 526 526 526 526 526 1035 1035 1035 1035 1035 1035 1035 1035 1035 1035 1035 1035
 1035 1035 1035 1035 316 316 316 657 657 657 657 657 657 657 657 657 657 657 657 657
 657 657 657 657 657 657 657 70 70 70 70 70 70 70 70 70 70 70 70 70
 70 664 664 664 664 664 664 664 664 664 664 664 664 664 664 664 664 664 659 659
 659 659 659 659 659 659 659 659 659 659 659 659 659 659 659 107 107 107 107 107
 107 107 107 107 107 107 726 726 726 726 726 726 726 726 726 726 726 726 726 726
 726 800 800 178 178 178 178 178 178 178 178 178 178 178 178 178 178 178 328 328
 328 328 328 328 328 328 328 328 328 328 328 328 328 328 1064 1064 1064 1064 1064 1064
 1064 1064 1064 1064 1064 1064 1064 746 746 746 746 746 746 746 746 746 746 746 931 931
 931 931 931 931 931 931 931 931 931 931 931 931 12 12 12 12 12 12 12 940
 940 940 940 940 940 940 940 940 940 940 940 940 940 940 940 940 940 940 940 940
 940 940 940 940 109 109 109 109 109 109 109 109 109 109 109 109 109 109 109 109
 109 109 109 109 109 109 907 907 907 907 907 907 907 907 907 907 907 907 907 907
 907 907 907 907 65 65 65 65 65 65 65 65 65 65 65 65 65 65 65 65
 65 65 65 65 65 65 65 65 65 65 65 217 217 217 217 217 217 217 217 217
 217 217 217 217 217 282 282 282 282 282 282 282 282 995 995 995 995 291 291 291
 291 291 291 291 291 291 291 291 291 291 291 975 975 975 975 975 975 975 975 975
 975 975 975 975 975 975 975 975 124 124 124 124 124 124 124 124 124 124 124 124
 124 124 124 124 124 124 124 124 852 852 852 852 852 852 852 852 852 852 852 852
 775 775 775 775 775 775 775 775 775 775 775 526 526 526 526 526 526 526 526 526
 526 526 526 526 526 526 526 526 1035 1035 1035 1035 1035 1035 1035 1035 1035 1035 1035 1035
 1035 1035 1035 316 316 316 316 316 316 657 657 657 657 657 657 657 657 657 657 657
 657 657 657 657 657 657 657 70 70 70 70 70 70 70 70 70 70 70 70 70
 70 70 664 664 664 664 664 664 664 664 664 664 664 664 664 664 664 664 242 242
 242 242 242 242 242 242 242 242 659 659 659 659 242 242 242 107 107 107 107 107
 107 107 107 107 107 107 726 726 726 726 726 726 726 726 726 726 726 726 726 726
 726 726 178 178 178 178 178 178 178 178 178 178 178 178 178 178 178 178 178 178
 328 328 328 328 328 328 328 328 328 328 328 328 328 328 1064 1064 1064 1064 1064 1064
 1064 1064 1064 1064 1064 1064 9 9 746 746 746 746 746 746 746 746 746 746 931 931
 931 931 931 931 54 54 54 54 54 54 54 54 54 54 54 54 54 12 940 940
 940 940 940 940 940 940 940 940 940 940 940 940 940 940 940 940 940 940 940 940
 940 940 940 940 109 109 109 109 109 109 109 109 109 109 109 109 109 109 109 109
 109 109 109 109 109 109 109 907 907 907 907 907 907 907 907 907 907 907 907 907
 907 907 907 65 65 65 65 65 65 65 65 65 65 65 65 65 65 65 65 65
 65 65 65 65 65 65 65 65 65 65 65 217 217 217 217 217 217 217 217 217
 217 217 217 217 217 217 282 282 282 282 282 995 995 995 995 995 995 995 995 995
 995 995 995 995 995 995 995 995 995 995 995 995 995 975 975 975 975 975 975 975
 975 975 975 975 975 975 975 909 909 909 909 909 909 909 909 909 909 909 909 124
 124 124 124 124 124 124 852 852 852 852 852 852 852 852 852 852 852 852 852 852
 775 775 775 775 775 775 775 775 775 775 775 775 526 526 526 526 526 526 526 526
 526 526 526 526 526 526 526 526 526 1035 1035 1035 1035 1035 1035 1035 1035 1035 1035 1035
 1035 1035 316 316 316 316 316 316 316 316 316 316 316 316 316 316 316 316 316 316
 316 316 316 657 657 657 657 70 70 70 70 70 70 70 70 70 70 70 70 70
 70 70 664 664 664 664 664 664 664 664 664 664 664 664 664 664 664 242 242 242
 242 242 242 242 242 242 242 242 242 242 242 242 242 242 242 107 107 107 107 107
 107 107 107 107 107 107 107 726 726 726 726 726 726 726 726 726 726 726 726 726
 726 726 178 178 178 178 178 178 178 178 178 178 178 178 178 178 178 178 178 851
 851 851 851 851 851 851 851 328 328 328 328 328 328 328 1064 1064 1064 1064 1064 1064
 1064 1064 1064 1064 9 9 9 9 9 746 746 746 746 746 746 746 746 746 931 931
 931 931 931 54 54 54 54 54 54 54 54 54 54 54 54 54 54 54 940 940
 940 940 940 940 940 940 940 940 940 940 940 940 940 940 940 940 940 940 940 940
 940 940 940 940 109 109 109 109 109 109 109 109 109 109 109 109 109 109 109 109
 109 109 109 109 109 109 109 82 82 82 82 82 82 82 907 907 907 907 907 907
 907 907 65 65 65 65 65 65 65 65 65 65 65 65 65 65 65 65 65 65
 65 65 65 65 65 65 65 65 65 65 65 217 217 217 217 217 217 217 217 217
 217 217 217 217 217 217 217 995 995 995 995 995 995 995 995 995 995 995 995 995
 995 995 995 995 995 995 995 995 995 995 995 995 995 995 975 975 975 975 975 975
 975 975 975 975 397 397 397 909 909 909 909 909 909 909 909 909 909 909 909 124
 124 124 124 124 852 852 852 852 852 852 852 852 852 852 852 852 852 852 852 852
 775 775 775 775 775 775 775 775 775 775 775 775 775 775 526 526 526 526 526 526
 526 526 526 526 526 526 526 526 526 526 1035 1035 1035 1035 1035 1035 1035 1035 1035 1035
 1035 316 316 316 316 316 316 316 316 316 316 316 316 316 316 316 316 316 316 316
 316 316 316 316 657 657 657 70 70 70 70 70 70 70 70 70 70 70 70 70
 70 70 664 664 664 664 835 835 835 835 835 835 835 835 835 835 242 242 242 242
 242 242 242 242 242 242 242 242 242 242 242 242 242 242 242 242 107 107 107 107
 107 107 107 107 107 107 107 107 726 726 726 726 726 726 726 726 726 726 726 726
 532 532 532 532 178 178 178 178 178 178 178 178 178 178 178 178 178 851 851 851
 851 851 851 851 851 851 851 851 328 328 328 328 328 328 1064 1064 1064 1064 1064 1064
 1064 1064 9 9 9 9 9 9 9 9 795 795 795 795 795 746 746 795 795 795
 795 795 795 54 54 54 54 54 54 54 54 54 54 54 54 54 54 54 940 940
 940 940 1050 1050 1050 1050 1050 1050 940 940 940 940 940 940 940 940 940 940 940 940
 940 940 940 940 437 437 437 437 109 109 109 109 109 109 109 109 109 109 109 109
 109 109 109 109 109 82 82 82 82 82 82 82 82 82 82 907 907 907 907 907
 907 907 65 65 65 65 65 65 65 65 65 65 65 65 65 65 65 65 65 65
 65 65 65 65 65 65 65 65 65 65 65 217 217 217 217 217 217 217 217 217
 217 217 217 217 217 217 217 206 995 995 995 995 995 995 995 995 995 995 995 995
 995 995 995 995 995 995 995 995 995 995 995 995 995 995 995 975 975 975 975 397
 397 397 397 397 397 397 397 397 397 397 909 909 909 909 909 909 909 909 909 124
 124 852 852 852 852 852 852 852 852 852 852 852 852 852 852 852 852 852 852 852
 775 775 775 775 775 775 775 775 775 775 775 775 775 775 775 775 526 526 526 526
 526 526 526 526 526 526 526 526 526 526 1035 1035 1035 1035 1035 1035 1035 1035 1035 1035
 876 316 316 316 316 316 316 316 316 316 316 316 316 316 316 316 316 316 316 316
 316 316 316 316 657 657 657 70 70 70 70 70 70 70 70 70 70 70 70 70
 70 70 835 835 835 835 835 835 835 835 835 835 835 835 835 835 242 242 242 242
 242 242 242 242 242 242 242 242 242 242 242 242 242 242 242 242 242 242 242 107
 107 107 107 107 107 107 107 107 726 726 726 726 726 532 532 532 532 532 532 532
 532 532 532 532 532 532 532 532 532 532 178 178 178 178 178 178 178 851 851 851
 851 851 851 851 851 851 851 851 328 328 328 328 328 328 9 9 9 9 9 9
 9 9 9 9 9 9 9 9 9 9 795 795 795 795 795 795 795 795 795 795
 795 795 795 795 795 54 54 54 54 54 54 54 54 54 54 54 54 54 1050 1050
 1050 1050 1050 1050 1050 1050 1050 1050 1050 1050 1050 1050 1050 1050 1050 1050 1050 1050 1050 1050
 1050 1050 1050 437 437 437 437 437 437 437 109 109 109 109 109 109 109 109 109 109
 109 109 109 109 109 82 82 82 82 82 82 82 82 82 82 82 907 907 907 907
 907 907 65 65 65 65 65 65 65 65 65 65 65 65 65 65 65 65 65 65
 65 65 65 65 65 65 65 65 65 65 65 217 217 217 217 217 217 217 217 217
 217 217 217 217 217 217 217 206 206 995 995 995 995 995 995 995 995 995 995 995
 995 995 995 995 995 995 995 995 995 995 995 995 995 995 969 969 969 969 397 397
 397 397 397 397 397 397 397 397 397 397 397 397 397 397 397 397 909 909 909 124
 852 852 852 852 852 852 852 852 852 852 852 852 852 852 852 852 852 852 852 852
 775 775 775 775 775 775 775 775 775 775 775 775 775 775 775 775 775 775 526 526
 526 526 526 526 526 526 526 526 526 526 1035 1035 1035 1035 1035 876 876 876 876 876
 876 876 876 316 316 316 316 316 316 316 316 316 316 316 316 316 316 316 316 316
 316 316 316 56 56 56 56 56 70 70 70 70 70 70 70 70 70 70 70 70
 70 70 835 835 835 835 835 835 835 835 835 835 835 835 835 835 835 242 242 242
 242 242 242 242 242 242 242 242 242 242 242 242 242 242 242 242 242 242 242 242
 107 107 107 107 107 107 17 17 17 17 17 17 17 532 532 532 532 532 532 532
 532 532 532 532 532 532 532 532 532 532 532 532 532 532 178 178 178 851 851 851
 851 851 851 851 851 851 851 851 328 328 9 9 9 9 9 9 9 9 9 9
 9 9 9 9 9 9 9 9 9 9 795 795 795 795 795 795 795 795 795 795
 795 795 795 795 795 795 795 795 795 54 54 54 54 54 54 54 54 1050 1050 1050
 1050 1050 1050 1050 1050 1050 1050 1050 1050 1050 1050 1050 1050 1050 1050 1050 1050 1050 1050 1050
 1050 1050 1050 437 437 437 437 437 437 437 437 437 437 437 437 437 437 437 437 437
 437 109 109 109 109 82 82 82 82 82 82 82 82 82 82 82 907 907 907 907
 907 907 65 65 65 65 65 65 65 65 65 65 65 65 65 65 65 65 65 65
 65 65 65 65 65 65 65 65 65 65 65 217 217 217 217 217 217 217 217 217
 217 217 217 217 217 217 217 206 206 206 995 995 995 995 995 995 995 995 995 995
 995 995 995 995 995 995 995 995 995 995 995 995 90 90 969 969 969 969 397 397
 397 397 397 397 397 397 397 397 397 397 397 397 397 397 397 397 57 57 57 57
 852 852 852 852 852 852 852 852 852 852 852 852 852 852 852 852 852 852 852 852
 775 775 775 775 775 775 775 775 775 775 775 775 775 775 775 775 775 775 775 775
 526 526 526 526 526 526 526 526 526 526 1035 1035 1035 876 876 876 876 876 876 876
 876 876 876 876 876 316 316 316 316 316 316 316 316 316 316 316 316 316 56 56
 56 56 56 56 56 56 56 56 772 772 70 70 70 70 70 70 70 70 70 70
 70 70 835 835 835 835 835 835 835 835 835 835 835 835 835 835 835 242 242 242
 242 242 242 242 242 242 242 242 242 242 242 242 242 242 242 242 242 242 242 242
 17 17 17 17 17 17 17 17 17 17 17 17 17 532 532 532 532 532 532 532
 532 532 532 532 532 532 532 532 532 532 532 532 532 532 532 532 532 851 851 851
 851 851 851 851 851 851 851 851 9 9 9 9 9 9 9 9 9 9 9 9
 9 9 9 9 9 9 9 9 9 9 795 795 795 795 795 795 795 795 795 795
 795 795 795 795 795 795 795 795 795 795 54 54 54 54 54 54 54 1050 1050 1050
 1050 1050 1050 1050 1050 1050 1050 1050 1050 1050 1050 1050 1050 1050 1050 1050 1050 1050 1050 1050
 1050 1050 437 437 437 437 437 437 437 437 437 437 437 437 437 437 437 437 437 437
 437 437 437 109 109 82 82 82 82 82 82 82 82 82 82 82 41 41 41 41
 41 41 41 65 65 65 65 861 861 861 861 861 861 861 861 861 861 861 861 861
 65 65 65 65 65 65 65 65 65 65 65 217 217 217 217 217 217 217 217 217
 217 217 217 217 217 217 217 206 206 206 206 123 123 123 123 123 123 123 123 123
 995 995 995 995 995 995 995 995 995 995 90 90 90 90 969 969 969 969 969 397
 397 397 397 397 397 397 397 397 397 397 397 397 397 397 57 57 57 57 57 57
 57 57 852 852 852 852 852 852 852 852 852 852 852 852 852 852 852 852 852 852
 775 775 775 775 775 775 775 775 775 775 775 775 775 775 775 775 775 775 775 775
 775 775 526 526 526 526 347 347 347 347 347 876 876 876 876 876 876 876 876 876
 876 876 876 876 876 876 316 316 316 316 316 316 316 316 316 316 56 56 56 56
 56 56 56 56 56 56 56 56 772 772 772 772 772 772 772 772 772 772 772 772
 772 772 835 835 835 835 835 835 835 835 835 835 835 835 835 835 835 242 242 242
 242 242 242 242 242 242 242 242 242 242 242 242 242 242 242 242 242 242 242 17
 17 17 17 17 17 17 17 17 17 17 17 17 17 17 17 17 17 532 532 532
 532 532 532 532 532 532 532 532 532 532 532 532 532 532 532 532 532 851 851 851
 851 851 851 851 851 851 851 851 9 9 9 9 9 9 9 9 9 9 9 9
 9 9 9 9 9 9 9 9 9 9 795 795 795 795 795 795 795 795 795 795
 795 795 795 795 795 795 795 795 795 795 54 54 54 54 54 54 54 95 1050 1050
 1050 1050 1050 1050 1050 1050 1050 1050 1050 1050 1050 1050 1050 1050 1050 1050 1050 1050 1050 1050
 1050 437 437 437 437 437 437 437 437 437 437 437 437 437 437 437 437 437 437 437
 437 437 437 437 109 82 82 82 82 82 82 82 82 82 41 41 41 41 41 41
 41 41 41 41 65 65 861 861 861 861 861 861 861 861 861 861 861 861 861 861
 861 65 65 65 65 65 65 65 65 65 65 217 217 217 217 217 217 217 217 217
 217 217 217 217 217 206 206 206 206 206 206 123 123 123 123 123 123 123 123 123
 123 123 123 123 123 123 123 123 123 90 90 90 90 90 969 969 969 969 969 90
 90 397 397 397 397 397 397 397 57 57 57 57 57 57 57 57 57 57 57 57
 57 57 57 57 57 852 852 852 852 852 852 852 852 852 852 852 852 852 852 852
 775 775 775 775 775 775 775 775 775 775 775 775 775 775 775 775 775 775 775 775
 775 775 775 775 775 347 347 347 347 347 347 876 876 876 876 876 876 876 876 876
 876 876 876 876 876 876 208 208 208 208 208 208 208 208 208 56 56 56 56 56
 56 56 56 56 56 56 56 56 772 772 772 772 772 772 772 772 772 772 772 772
 772 772 772 835 835 835 835 835 835 835 835 835 835 835 835 835 835 242 242 242
 242 242 242 242 242 242 242 242 242 242 242 242 242 242 242 242 242 242 242 17
 17 17 17 17 17 17 17 17 17 17 17 17 17 17 17 17 17 17 17 17
 532 532 532 532 532 532 532 532 532 532 532 532 532 532 532 532 532 851 851 851
 851 851 851 851 851 851 851 9 9 9 9 9 9 9 9 9 9 9 9 9
 9 9 9 9 9 9 9 9 9 9 9 795 795 795 795 795 795 795 795 795
 795 795 795 795 795 795 795 795 795 795 54 54 54 54 54 54 95 95 95 95
 1050 1050 1050 1050 1050 1050 1050 1050 1050 1050 1050 1050 1050 1050 1050 1050 1050 1050 1050 1050
 1050 437 437 437 437 437 437 437 437 437 437 437 437 437 437 437 437 437 437 437
 437 437 437 437 444 82 82 82 82 82 82 41 41 41 41 41 41 41 41 41
 41 41 41 41 41 41 861 861 861 861 861 861 861 861 861 861 861 861 861 861
 861 65 65 65 65 65 65 65 65 65 807 807 217 217 206 206 206 206 206 206
 206 206 206 206 206 206 206 206 206 206 206 123 123 123 123 123 123 123 123 123
 123 123 123 123 123 123 123 123 123 90 90 90 90 90 969 969 969 969 969 90
 90 90 90 90 90 397 397 397 57 57 57 57 57 57 57 57 57 57 57 57
 57 57 57 57 57 57 852 852 852 852 852 852 852 852 852 852 852 852 852 852
 775 775 775 775 775 775 775 775 775 775 775 775 775 775 775 775 775 775 775 775
 775 775 775 775 775 347 347 347 347 347 347 876 876 876 876 876 876 876 876 876