# vtk DataFile Version 3.0 (2.0)
#Data set from ImportExport Version 6.5.163.1998a502a
#ASCII
t=0s
ASCII

DATASET STRUCTURED_POINTS
DIMENSIONS 501 2 501
ORIGIN 0 0 0
SPACING 1.5 1.5 1.5
#X_COORDINATES 201 float

CELL_DATA 250000
SCALARS korn int.
LOOKUP_TABLE default
 138 138 138 138 138 138 138 138 138 138 138 138 138 138 138 138 138 138 138 138
 138 138 138 138 138 138 138 138 138 138 138 138 138 138 138 138 138 138 138 138
 138 138 138 138 138 138 138 138 138 138 138 138 138 138 138 138 138 138 138 138
 138 138 138 138 138 138 138 138 138 138 138 138 102 102 102 102 102 102 102 102
 102 102 102 102 102 102 102 102 102 102 102 102 102 102 102 102 102 102 102 102
 102 102 102 102 102 102 102 102 102 102 102 102 102 102 102 102 102 102 102 102
 102 102 102 102 102 102 102 102 102 102 102 102 102 102 88 88 88 88 88 88
 88 88 88 88 88 88 88 88 88 88 88 88 88 88 88 88 88 88 88 88
 88 88 88 88 88 88 88 88 88 88 88 88 88 88 88 88 88 88 88 88
 88 88 88 88 88 88 88 88 88 88 88 88 88 88 88 88 88 88 88 88
 88 88 88 88 88 88 88 5 5 5 5 5 5 5 5 5 5 5 5 5
 5 5 5 5 5 5 5 5 5 5 5 5 5 5 5 5 5 5 221 221
 221 221 221 221 221 221 221 221 221 221 221 221 221 221 221 221 221 221 221 221
 221 221 221 221 221 221 221 221 4 4 4 4 4 4 4 4 4 4 4 4
 4 4 4 4 4 4 4 4 4 4 4 4 4 4 4 4 4 4 4 4
 4 4 4 4 4 4 4 4 4 4 4 4 4 4 4 4 4 4 4 4
 4 4 4 4 4 4 4 4 4 4 4 4 4 4 4 70 70 70 70 70
 70 70 70 70 70 70 70 70 70 70 70 70 70 70 70 69 69 69 69 69
 69 69 69 69 69 69 69 69 69 69 69 69 69 69 69 69 69 69 69 69
 69 41 41 41 41 41 41 41 41 41 41 41 41 41 41 41 41 41 41 41
 41 41 41 41 41 41 41 41 41 41 41 41 41 41 41 41 41 41 41 41
 41 41 41 41 41 41 41 41 41 41 41 41 41 41 41 41 41 41 41 41
 41 41 41 41 41 41 41 41 41 41 41 41 41 41 41 41 41 41 41 41
 41 41 41 41 41 41 41 41 41 41 41 41 41 41 41 41 41 41 41 41
 41 41 41 41 41 41 41 41 41 41 41 41 41 41 41 41 41 41 41 41
 138 138 138 138 138 138 138 138 138 138 138 138 138 138 138 138 138 138 138 138
 138 138 138 138 138 138 138 138 138 138 138 138 138 138 138 138 138 138 138 138
 138 138 138 138 138 138 138 138 138 138 138 138 138 138 138 138 138 138 138 138
 138 138 138 138 138 138 138 138 138 138 138 138 102 102 102 102 102 102 102 102
 102 102 102 102 102 102 102 102 102 102 102 102 102 102 102 102 102 102 102 102
 102 102 102 102 102 102 102 102 102 102 102 102 102 102 102 102 102 102 102 102
 102 102 102 102 102 102 102 102 102 102 102 102 102 102 88 88 88 88 88 88
 88 88 88 88 88 88 88 88 88 88 88 88 88 88 88 88 88 88 88 88
 88 88 88 88 88 88 88 88 88 88 88 88 88 88 88 88 88 88 88 88
 88 88 88 88 88 88 88 88 88 88 88 88 88 88 88 88 88 88 88 88
 88 88 88 88 88 88 88 5 5 5 5 5 5 5 5 5 5 5 5 5
 5 5 5 5 5 5 5 5 5 5 5 5 5 5 5 5 5 5 221 221
 221 221 221 221 221 221 221 221 221 221 221 221 221 221 221 221 221 221 221 221
 221 221 221 221 221 221 221 221 4 4 4 4 4 4 4 4 4 4 4 4
 4 4 4 4 4 4 4 4 4 4 4 4 4 4 4 4 4 4 4 4
 4 4 4 4 4 4 4 4 4 4 4 4 4 4 4 4 4 4 4 4
 4 4 4 4 4 4 4 4 4 4 4 4 4 4 4 70 70 70 70 70
 70 70 70 70 70 70 70 70 70 70 70 70 70 70 70 69 69 69 69 69
 69 69 69 69 69 69 69 69 69 69 69 69 69 69 69 69 69 69 69 69
 69 41 41 41 41 41 41 41 41 41 41 41 41 41 41 41 41 41 41 41
 41 41 41 41 41 41 41 41 41 41 41 41 41 41 41 41 41 41 41 41
 41 41 41 41 41 41 41 41 41 41 41 41 41 41 41 41 41 41 41 41
 41 41 41 41 41 41 41 41 41 41 41 41 41 41 41 41 41 41 41 41
 41 41 41 41 41 41 41 41 41 41 41 41 41 41 41 41 41 41 41 41
 41 41 41 41 41 41 41 41 41 41 41 41 41 41 41 41 41 41 41 41
 138 138 138 138 138 138 138 138 138 138 138 138 138 138 138 138 138 138 138 138
 138 138 138 138 138 138 138 138 138 138 138 138 138 138 138 138 138 138 138 138
 138 138 138 138 138 138 138 138 138 138 138 138 138 138 138 138 138 138 138 138
 138 138 138 138 138 138 138 138 138 138 138 138 102 102 102 102 102 102 102 102
 102 102 102 102 102 102 102 102 102 102 102 102 102 102 102 102 102 102 102 102
 102 102 102 102 102 102 102 102 102 102 102 102 102 102 102 102 102 102 102 102
 102 102 102 102 102 102 102 102 102 102 102 102 102 102 102 88 88 88 88 88
 88 88 88 88 88 88 88 88 88 88 88 88 88 88 88 88 88 88 88 88
 88 88 88 88 88 88 88 88 88 88 88 88 88 88 88 88 88 88 88 88
 88 88 88 88 88 88 88 88 88 88 88 88 88 88 88 88 88 88 88 88
 88 88 88 88 88 88 5 5 5 5 5 5 5 5 5 5 5 5 5 5
 5 5 5 5 5 5 5 5 5 5 5 5 5 5 5 5 5 5 221 221
 221 221 221 221 221 221 221 221 221 221 221 221 221 221 221 221 221 221 221 221
 221 221 221 221 221 221 221 221 4 4 4 4 4 4 4 4 4 4 4 4
 4 4 4 4 4 4 4 4 4 4 4 4 4 4 4 4 4 4 4 4
 4 4 4 4 4 4 4 4 4 4 4 4 4 4 4 4 4 4 4 4
 4 4 4 4 4 4 4 4 4 4 4 4 4 4 4 70 70 70 70 70
 70 70 70 70 70 70 70 70 70 70 70 70 70 70 70 69 69 69 69 69
 69 69 69 69 69 69 69 69 69 69 69 69 69 69 69 69 69 69 69 69
 69 69 69 41 41 41 41 41 41 41 41 41 41 41 41 41 41 41 41 41
 41 41 41 41 41 41 41 41 41 41 41 41 41 41 41 41 41 41 41 41
 41 41 41 41 41 41 41 41 41 41 41 41 41 41 41 41 41 41 41 41
 41 41 41 41 41 41 41 41 41 41 41 41 41 41 41 41 41 41 41 41
 41 41 41 41 41 41 41 41 41 41 41 41 41 41 41 41 41 41 41 41
 41 41 41 41 41 41 41 41 41 41 41 41 41 41 41 41 41 41 41 41
 138 138 138 138 138 138 138 138 138 138 138 138 138 138 138 138 138 138 138 138
 138 138 138 138 138 138 138 138 138 138 138 138 138 138 138 138 138 138 138 138
 138 138 138 138 138 138 138 138 138 138 138 138 138 138 138 138 138 138 138 138
 138 138 138 138 138 138 138 138 138 138 138 102 102 102 102 102 102 102 102 102
 102 102 102 102 102 102 102 102 102 102 102 102 102 102 102 102 102 102 102 102
 102 102 102 102 102 102 102 102 102 102 102 102 102 102 102 102 102 102 102 102
 102 102 102 102 102 102 102 102 102 102 102 102 102 102 102 121 121 121 121 88
 88 88 88 88 88 88 88 88 88 88 88 88 88 88 88 88 88 88 88 88
 88 88 88 88 88 88 88 88 88 88 88 88 88 88 88 88 88 88 88 88
 88 88 88 88 88 88 88 88 88 88 88 88 88 88 88 88 88 88 88 88
 88 88 88 88 5 5 5 5 5 5 5 5 5 5 5 5 5 5 5 5
 5 5 5 5 5 5 5 5 5 5 5 5 5 5 5 5 5 5 221 221
 221 221 221 221 221 221 221 221 221 221 221 221 221 221 221 221 221 221 221 221
 221 221 221 221 221 221 221 221 4 4 4 4 4 4 4 4 4 4 4 4
 4 4 4 4 4 4 4 4 4 4 4 4 4 4 4 4 4 4 4 4
 4 4 4 4 4 4 4 4 4 4 4 4 4 4 4 4 4 4 4 4
 4 4 4 4 4 4 4 4 4 4 4 4 4 4 4 70 70 70 70 70
 70 70 70 70 70 70 70 70 70 70 70 70 70 70 70 69 69 69 69 69
 69 69 69 69 69 69 69 69 69 69 69 69 69 69 69 69 69 69 69 69
 69 69 69 69 69 69 41 41 41 41 41 41 41 41 41 41 41 41 41 41
 41 41 41 41 41 41 41 41 41 41 41 41 41 41 41 41 41 41 41 41
 41 41 41 41 41 41 41 41 41 41 41 41 41 41 41 41 41 41 41 41
 41 41 41 41 41 41 41 41 41 41 41 41 41 41 41 41 41 41 41 41
 41 41 41 41 41 41 41 41 41 41 41 41 41 41 41 41 41 41 41 41
 41 41 41 41 41 41 41 41 41 41 41 41 41 41 41 41 41 41 41 41
 138 138 138 138 138 138 138 138 138 138 138 138 138 138 138 138 138 138 138 138
 138 138 138 138 138 138 138 138 138 138 138 138 138 138 138 138 138 138 138 138
 138 138 138 138 138 138 138 138 138 138 138 138 138 138 138 138 138 138 138 138
 138 138 138 138 138 138 138 138 138 138 102 102 102 102 102 102 102 102 102 102
 102 102 102 102 102 102 102 102 102 102 102 102 102 102 102 102 102 102 102 102
 102 102 102 102 102 102 102 102 102 102 102 102 102 102 102 102 102 102 102 102
 102 102 102 102 102 102 102 102 102 102 102 102 102 102 102 121 121 121 121 121
 121 88 88 88 88 88 88 88 88 88 88 88 88 88 88 88 88 88 88 88
 88 88 88 88 88 88 88 88 88 88 88 88 88 88 88 88 88 88 88 88
 88 88 88 88 88 88 88 88 88 88 88 88 88 88 88 88 88 88 88 88
 88 88 5 5 5 5 5 5 5 5 5 5 5 5 5 5 5 5 5 5
 5 5 5 5 5 5 5 5 5 5 5 5 5 5 5 5 5 5 221 221
 221 221 221 221 221 221 221 221 221 221 221 221 221 221 221 221 221 221 221 221
 221 221 221 221 221 221 221 221 4 4 4 4 4 4 4 4 4 4 4 4
 4 4 4 4 4 4 4 4 4 4 4 4 4 4 4 4 4 4 4 4
 4 4 4 4 4 4 4 4 4 4 4 4 4 4 4 4 4 4 4 4
 4 4 4 4 4 4 4 4 4 4 4 4 4 4 4 70 70 70 70 70
 70 70 70 70 70 70 70 70 70 70 70 70 70 70 70 69 69 69 69 69
 69 69 69 69 69 69 69 69 69 69 69 69 69 69 69 69 69 69 69 69
 69 69 69 69 69 69 69 69 69 69 69 69 41 41 41 41 41 41 41 41
 41 41 41 41 41 41 41 41 41 41 41 41 41 41 41 41 41 41 41 41
 41 41 41 41 41 41 41 41 41 41 41 41 41 41 41 41 41 41 41 41
 41 41 41 41 41 41 41 41 41 41 41 41 41 41 41 41 41 41 41 41
 41 41 41 41 41 41 41 41 41 41 41 41 41 41 41 41 41 41 41 41
 41 41 41 41 41 41 41 41 41 41 41 41 41 41 41 41 41 41 41 41
 138 138 138 138 138 138 138 138 138 138 138 138 138 138 138 138 138 138 138 138
 138 138 138 138 138 138 138 138 138 138 138 138 138 138 138 138 138 138 138 138
 138 138 138 138 138 138 138 138 138 138 138 138 138 138 138 138 138 138 138 138
 138 138 138 138 138 138 138 138 55 55 102 102 102 102 102 102 102 102 102 102
 102 102 102 102 102 102 102 102 102 102 102 102 102 102 102 102 102 102 102 102
 102 102 102 102 102 102 102 102 102 102 102 102 102 102 102 102 102 102 102 102
 102 102 102 102 102 102 102 102 102 102 102 102 102 102 102 121 121 121 121 121
 121 121 121 88 88 88 88 88 88 88 88 88 88 88 88 88 88 88 88 88
 88 88 88 88 88 88 88 88 88 88 88 88 88 88 88 88 88 88 88 88
 88 88 88 88 88 88 88 88 88 88 88 88 88 88 88 88 88 88 88 88
 5 5 5 5 5 5 5 5 5 5 5 5 5 5 5 5 5 5 5 5
 5 5 5 5 5 5 5 5 5 5 5 5 5 5 5 5 5 5 221 221
 221 221 221 221 221 221 221 221 221 221 221 221 221 221 221 221 221 221 221 221
 221 221 221 221 221 221 221 221 4 4 4 4 4 4 4 4 4 4 4 4
 4 4 4 4 4 4 4 4 4 4 4 4 4 4 4 4 4 4 4 4
 4 4 4 4 4 4 4 4 4 4 4 4 4 4 4 4 4 4 4 4
 4 4 4 4 4 4 4 4 4 4 4 4 4 4 4 70 70 70 70 70
 70 70 70 70 70 70 70 70 70 70 70 70 70 70 70 69 69 69 69 69
 69 69 69 69 69 69 69 69 69 69 69 69 69 69 69 69 69 69 69 69
 69 69 69 69 69 69 69 69 69 69 69 69 69 69 69 69 69 69 69 69
 69 69 41 41 41 41 41 41 41 41 41 41 41 41 41 41 41 41 41 41
 41 41 41 41 41 41 41 41 41 41 41 41 41 41 41 41 41 41 41 41
 41 41 41 41 41 41 41 41 41 41 41 41 41 41 41 41 41 41 41 41
 41 41 41 41 41 41 41 41 41 41 41 41 41 41 41 41 41 41 41 41
 41 41 41 41 41 41 41 41 41 41 41 41 41 41 41 41 41 41 41 41
 138 138 138 138 138 138 138 138 138 138 138 138 138 138 138 138 138 138 138 138
 138 138 138 138 138 138 138 138 138 138 138 138 138 138 138 138 138 138 138 138
 138 138 138 138 138 138 138 138 138 138 138 138 138 138 138 138 138 138 138 138
 138 138 138 138 138 138 55 55 55 55 102 102 102 102 102 102 102 102 102 102
 102 102 102 102 102 102 102 102 102 102 102 102 102 102 102 102 102 102 102 102
 102 102 102 102 102 102 102 102 102 102 102 102 102 102 102 102 102 102 102 102
 102 102 102 102 102 102 102 102 102 102 102 102 102 102 102 121 121 121 121 121
 121 121 121 121 121 88 88 88 88 88 88 88 88 88 88 88 88 88 88 88
 88 88 88 88 88 88 88 88 88 88 88 88 88 88 88 88 88 88 88 88
 88 88 88 88 88 88 88 88 88 88 88 88 88 121 121 121 121 121 121 5
 5 5 5 5 5 5 5 5 5 5 5 5 5 5 5 5 5 5 5 5
 5 5 5 5 5 5 5 5 5 5 5 5 5 5 5 5 5 5 221 221
 221 221 221 221 221 221 221 221 221 221 221 221 221 221 221 221 221 221 221 221
 221 221 221 221 221 221 221 221 4 4 4 4 4 4 4 4 4 4 4 4
 4 4 4 4 4 4 4 4 4 4 4 4 4 4 4 4 4 4 4 4
 4 4 4 4 4 4 4 4 4 4 4 4 4 4 4 4 4 4 4 4
 4 4 4 4 4 4 4 4 4 4 4 4 4 4 4 70 70 70 70 70
 70 70 70 70 70 70 70 70 70 70 70 70 70 70 70 69 69 69 69 69
 69 69 69 69 69 69 69 69 69 69 69 69 69 69 69 69 69 69 69 69
 69 69 69 69 69 69 69 69 69 69 69 69 69 69 69 69 69 69 69 69
 69 69 69 69 69 69 69 41 41 41 41 41 41 41 41 41 41 41 41 41
 41 41 41 41 41 41 41 41 41 41 41 41 41 41 41 41 41 41 41 41
 41 41 41 41 41 41 41 41 41 41 41 41 41 41 41 41 41 41 41 41
 41 41 41 41 41 41 41 41 41 41 41 41 41 41 41 41 41 41 41 41
 41 41 41 41 41 41 41 41 41 41 41 41 41 41 41 41 41 41 41 41
 138 138 138 138 138 138 138 138 138 138 138 138 138 138 138 138 138 138 138 138
 138 138 138 138 138 138 138 138 138 138 138 138 138 138 138 138 138 138 138 138
 138 138 138 138 138 138 138 138 138 138 138 138 138 138 138 138 138 138 138 138
 138 138 138 138 138 55 55 55 55 55 55 55 55 102 102 102 102 102 102 102
 102 102 102 102 102 102 102 102 102 102 102 102 102 102 102 102 102 102 102 102
 102 102 102 102 102 102 102 102 102 102 102 102 102 102 102 102 102 102 102 102
 102 102 102 102 102 102 102 102 102 102 102 102 102 102 121 121 121 121 121 121
 121 121 121 121 121 121 121 121 121 88 88 88 88 88 88 88 88 88 88 88
 88 88 88 88 88 88 88 88 88 88 88 88 88 88 88 88 88 88 88 88
 88 88 88 88 88 88 88 88 88 88 88 121 121 121 121 121 121 121 121 5
 5 5 5 5 5 5 5 5 5 5 5 5 5 5 5 5 5 5 5 5
 5 5 5 5 5 5 5 5 5 5 5 5 5 5 5 5 5 5 221 221
 221 221 221 221 221 221 221 221 221 221 221 221 221 221 221 221 221 221 221 221
 221 221 221 221 221 221 221 221 4 4 4 4 4 4 4 4 4 4 4 4
 4 4 4 4 4 4 4 4 4 4 4 4 4 4 4 4 4 4 4 4
 4 4 4 4 4 4 4 4 4 4 4 4 4 4 4 4 4 4 4 4
 4 4 4 4 4 4 4 4 4 4 4 4 4 4 4 70 70 70 70 70
 70 70 70 70 70 70 70 70 70 70 70 70 70 70 70 69 69 69 69 69
 69 69 69 69 69 69 69 69 69 69 69 69 69 69 69 69 69 69 69 69
 69 69 69 69 69 69 69 69 69 69 69 69 69 69 69 69 69 69 69 69
 69 69 69 69 69 69 69 69 41 41 41 41 41 41 41 41 41 41 41 41
 41 41 41 41 41 41 41 41 41 41 41 41 41 41 41 41 41 41 41 41
 41 41 41 41 41 41 41 41 41 41 41 41 41 41 41 41 41 41 41 41
 41 41 41 41 41 41 41 41 41 41 41 41 41 41 41 41 41 41 41 41
 41 41 41 41 41 41 41 41 41 41 41 41 41 41 41 41 41 41 41 41
 138 138 138 138 138 138 138 138 138 138 138 138 138 138 138 138 138 138 138 138
 138 138 138 138 138 138 138 138 138 138 138 138 138 138 138 138 138 138 138 138
 138 138 138 138 138 138 138 138 138 138 138 138 138 138 138 138 138 138 138 138
 138 138 138 138 55 55 55 55 55 55 55 55 55 55 55 102 102 102 102 102
 102 102 102 102 102 102 102 102 102 102 102 102 102 102 102 102 102 102 102 102
 102 102 102 102 102 102 102 102 102 102 102 102 102 102 102 102 102 102 102 102
 102 102 102 102 102 102 102 102 102 102 102 102 102 102 121 121 121 121 121 121
 121 121 121 121 121 121 121 121 121 121 121 121 121 121 121 121 121 121 121 121
 121 121 121 121 88 88 88 88 88 88 88 88 88 88 88 88 88 88 88 88
 88 88 88 88 88 88 88 88 121 121 121 121 121 121 121 121 121 121 121 5
 5 5 5 5 5 5 5 5 5 5 5 5 5 5 5 5 5 5 5 5
 5 5 5 5 5 5 5 5 5 5 5 5 5 5 5 5 5 5 221 221
 221 221 221 221 221 221 221 221 221 221 221 221 221 221 221 221 221 221 221 221
 221 221 221 221 221 221 221 221 4 4 4 4 4 4 4 4 4 4 4 4
 4 4 4 4 4 4 4 4 4 4 4 4 4 4 4 4 4 4 4 4
 4 4 4 4 4 4 4 4 4 4 4 4 4 4 4 4 4 4 4 4
 4 4 4 4 4 4 4 4 4 4 4 4 4 4 4 70 70 70 70 70
 70 70 70 70 70 70 70 70 70 70 70 70 70 70 70 70 70 69 69 69
 69 69 69 69 69 69 69 69 69 69 69 69 69 69 69 69 69 69 69 69
 69 69 69 69 69 69 69 69 69 69 69 69 69 69 69 69 69 69 69 69
 69 69 69 69 69 69 69 69 49 49 49 49 49 49 49 49 49 49 49 49
 49 49 49 41 41 41 41 41 41 41 41 41 41 41 41 41 41 41 41 41
 41 41 41 41 41 41 41 41 41 41 41 41 41 41 41 41 41 41 41 41
 41 41 41 41 41 41 41 41 41 41 41 41 41 41 41 41 41 41 41 41
 41 41 41 41 41 41 41 41 41 41 41 41 41 41 41 41 41 41 41 41
 138 138 138 138 138 138 138 138 138 138 138 138 138 138 138 138 138 138 138 138
 138 138 138 138 138 138 138 138 138 138 138 138 138 138 138 138 138 138 138 138
 138 138 138 138 138 138 138 138 138 138 138 138 138 138 138 138 138 138 138 138
 138 138 138 55 55 55 55 55 55 55 55 55 55 55 55 55 55 102 102 102
 102 102 102 102 102 102 102 102 102 102 102 102 102 102 102 102 102 102 102 102
 102 102 102 102 102 102 102 102 102 102 102 102 102 102 102 102 102 102 102 102
 102 102 102 102 102 102 102 102 102 102 102 102 102 121 121 121 121 121 121 121
 121 121 121 121 121 121 121 121 121 121 121 121 121 121 121 121 121 121 121 121
 121 121 121 121 121 121 121 121 121 121 121 121 121 121 121 121 121 121 121 121
 121 121 121 121 121 121 121 121 121 121 121 121 121 121 121 121 121 121 121 5
 5 5 5 5 5 5 5 5 5 5 5 5 5 5 5 5 5 5 5 5
 5 5 5 5 5 5 5 5 5 5 5 5 5 5 5 5 5 5 221 221
 221 221 221 221 221 221 221 221 221 221 221 221 221 221 221 221 221 221 221 221
 221 221 221 221 221 221 221 221 221 221 4 4 4 4 4 4 4 4 4 4
 4 4 4 4 4 4 4 4 4 4 4 4 4 4 4 4 4 4 4 4
 4 4 4 4 4 4 4 4 4 4 4 4 4 4 4 4 4 4 4 4
 4 4 4 4 4 4 4 4 4 4 4 4 4 4 70 70 70 70 70 70
 70 70 70 70 70 70 70 70 70 70 70 70 70 70 70 70 70 70 70 69
 69 69 69 69 69 69 69 69 69 69 69 69 69 69 69 69 69 69 69 69
 69 69 69 69 69 69 69 69 69 69 69 69 69 69 69 69 69 69 69 69
 69 69 69 69 69 69 49 49 49 49 49 49 49 49 49 49 49 49 49 49
 49 49 49 49 49 49 49 49 49 49 49 49 49 49 49 49 49 49 49 49
 49 49 49 49 49 49 41 41 41 41 41 41 41 41 41 41 41 41 41 41
 41 41 41 41 41 41 41 41 41 41 41 41 41 41 41 41 41 41 41 41
 41 41 41 41 41 41 41 41 41 41 41 41 41 41 41 41 41 41 41 41
 138 138 138 138 138 138 138 138 138 138 138 138 138 138 138 138 138 138 138 138
 138 138 138 138 138 138 138 138 138 138 138 138 138 138 138 138 138 138 138 138
 138 138 138 138 138 138 138 138 138 138 138 138 138 138 138 138 138 138 138 138
 138 138 55 55 55 55 55 55 55 55 55 55 55 55 55 55 55 55 55 102
 102 102 102 102 102 102 102 102 102 102 102 102 102 102 102 102 102 102 102 102
 102 102 102 102 102 102 102 102 102 102 102 102 102 102 102 102 102 102 102 102
 102 102 102 102 102 102 102 102 102 102 102 102 121 121 121 121 121 121 121 121
 121 121 121 121 121 121 121 121 121 121 121 121 121 121 121 121 121 121 121 121
 121 121 121 121 121 121 121 121 121 121 121 121 121 121 121 121 121 121 121 121
 121 121 121 121 121 121 121 121 121 121 121 121 121 121 121 121 121 121 121 5
 5 5 5 5 5 5 5 5 5 5 5 5 5 5 5 5 5 5 5 5
 5 5 5 5 5 5 5 5 5 5 5 5 5 5 5 5 5 5 221 221
 221 221 221 221 221 221 221 221 221 221 221 221 221 221 221 221 221 221 221 221
 221 221 221 221 221 221 221 221 221 221 221 221 4 4 4 4 4 4 4 4
 4 4 4 4 4 4 4 4 4 4 4 4 4 4 4 4 4 4 4 4
 4 4 4 4 4 4 4 4 4 4 4 4 4 4 4 4 4 4 4 4
 4 4 4 4 4 4 4 4 4 4 4 4 70 70 70 70 70 70 70 70
 70 70 70 70 70 70 70 70 70 70 70 70 70 70 70 70 70 70 70 70
 70 70 69 69 69 69 69 69 69 69 69 69 69 69 69 69 69 69 69 69
 69 69 69 69 69 69 69 69 69 69 69 69 69 69 69 49 49 49 49 49
 49 49 49 49 49 49 49 49 49 49 49 49 49 49 49 49 49 49 49 49
 49 49 49 49 49 49 49 49 49 49 49 49 49 49 49 49 49 49 49 49
 49 49 49 49 49 49 49 49 49 49 49 49 49 49 49 41 41 41 41 41
 41 41 41 41 41 41 41 41 41 41 41 41 41 41 41 41 41 41 41 41
 41 41 41 41 41 41 41 41 41 41 41 41 41 41 41 41 41 41 41 41
 138 138 138 138 138 138 138 138 138 138 138 138 138 138 138 138 138 138 138 138
 138 138 138 138 138 138 138 138 138 138 138 138 138 138 138 138 138 138 138 138
 138 138 138 138 138 138 138 138 138 138 138 138 138 138 138 138 138 138 138 138
 138 55 55 55 55 55 55 55 55 55 55 55 55 55 55 55 55 55 55 55
 55 55 102 102 102 102 102 102 102 102 102 102 102 102 102 102 102 102 102 102
 102 102 102 102 102 102 102 102 102 102 102 102 102 102 102 102 102 102 102 102
 102 102 102 102 102 102 102 102 102 102 102 121 121 121 121 121 121 121 121 121
 121 121 121 121 121 121 121 121 121 121 121 121 121 121 121 121 121 121 121 121
 121 121 121 121 121 121 121 121 121 121 121 121 121 121 121 121 121 121 121 121
 121 121 121 121 121 121 121 121 121 121 121 121 121 121 121 121 121 121 121 5
 5 5 5 5 5 5 5 5 5 5 5 5 5 5 5 5 5 5 5 5
 5 5 5 5 5 5 5 5 5 5 5 5 5 5 5 5 5 5 221 221
 221 221 221 221 221 221 221 221 221 221 221 221 221 221 221 221 221 221 221 221
 221 221 221 221 221 221 221 221 221 221 221 221 221 221 4 4 4 4 4 4
 4 4 4 4 4 4 4 4 4 4 4 4 4 4 4 4 4 4 4 4
 4 4 4 4 4 4 4 4 4 4 4 4 4 4 4 4 4 4 4 4
 4 4 4 4 4 4 4 4 4 4 70 70 70 70 70 70 70 70 70 70
 70 70 70 70 70 70 70 70 70 70 70 70 70 70 70 70 70 70 70 70
 70 70 70 70 70 70 70 70 70 70 70 70 70 69 69 69 69 69 69 69
 69 69 69 69 69 69 69 69 69 49 49 49 49 49 49 49 49 49 49 49
 49 49 49 49 49 49 49 49 49 49 49 49 49 49 49 49 49 49 49 49
 49 49 49 49 49 49 49 49 49 49 49 49 49 49 49 49 49 49 49 49
 49 49 49 49 49 49 49 49 49 49 49 49 49 49 49 49 49 49 41 41
 41 41 41 41 41 41 41 41 41 41 41 41 41 41 41 41 41 41 41 41
 41 41 41 41 41 41 41 41 41 41 41 41 41 41 41 41 41 41 41 41
 138 138 138 138 138 138 138 138 138 138 138 138 138 138 138 138 138 138 138 138
 138 138 138 138 138 138 138 138 138 138 138 138 138 138 138 138 138 138 138 138
 138 138 138 138 138 138 138 138 138 138 138 138 138 138 138 138 138 138 138 138
 55 55 55 55 55 55 55 55 55 55 55 55 55 55 55 55 55 55 55 55
 55 55 55 55 55 55 55 55 55 55 55 55 55 102 102 102 102 102 102 102
 102 102 102 102 102 102 102 102 102 102 102 102 102 102 102 102 102 102 102 102
 102 102 102 102 102 102 102 102 102 102 121 121 121 121 121 121 121 121 121 121
 121 121 121 121 121 121 121 121 121 121 121 121 121 121 121 121 121 121 121 121
 121 121 121 121 121 121 121 121 121 121 121 121 121 121 121 121 121 121 121 121
 121 121 121 121 121 121 121 121 121 121 121 121 121 121 121 121 121 121 121 5
 5 5 5 5 5 5 5 5 5 5 5 5 5 5 5 5 5 5 5 5
 5 5 5 5 5 5 5 5 5 5 5 5 5 5 5 5 5 5 221 221
 221 221 221 221 221 221 221 221 221 221 221 221 221 221 221 221 221 221 221 221
 221 221 221 221 221 221 221 221 221 221 221 221 221 221 221 4 4 4 4 4
 4 4 4 4 4 4 4 4 4 4 4 4 4 4 4 4 4 4 4 4
 4 4 4 4 4 4 4 4 4 4 4 4 4 4 4 4 4 4 4 4
 4 4 4 4 4 4 4 70 70 70 70 70 70 70 70 70 70 70 70 70
 70 70 70 70 70 70 70 70 70 70 70 70 70 70 70 70 70 70 70 70
 70 70 70 70 70 70 70 70 70 70 70 70 70 70 70 70 70 70 70 70
 70 70 70 70 70 69 69 69 49 49 49 49 49 49 49 49 49 49 49 49
 49 49 49 49 49 49 49 49 49 49 49 49 49 49 49 49 49 49 49 49
 49 49 49 49 49 49 49 49 49 49 49 49 49 49 49 49 49 49 49 49
 49 49 49 49 49 49 49 49 49 49 49 49 49 49 49 49 49 49 49 49
 49 41 41 41 41 41 41 41 41 41 41 41 41 41 41 41 41 41 41 41
 41 41 41 41 41 41 41 41 41 41 41 41 41 41 41 41 41 41 41 41
 162 162 162 162 162 162 162 162 162 162 162 162 162 162 162 162 162 162 162 162
 162 162 162 162 162 162 162 162 162 162 162 162 162 162 162 162 162 162 162 162
 162 162 162 162 162 162 162 162 162 162 162 162 162 162 162 162 162 162 162 162
 55 55 55 55 55 55 55 55 55 55 55 55 55 55 55 55 55 55 55 55
 55 55 55 55 55 55 55 55 55 55 55 55 55 55 55 55 55 55 55 55
 55 55 102 102 102 102 102 102 102 102 102 102 102 102 102 102 102 102 102 102
 102 102 102 102 102 102 102 102 102 121 121 121 121 121 121 121 121 121 121 121
 121 121 121 121 121 121 121 121 121 121 121 121 121 121 121 121 121 121 121 121
 121 121 121 121 121 121 121 121 121 121 121 121 121 121 121 121 121 121 121 121
 121 121 121 121 121 121 121 121 121 121 121 121 121 121 121 121 121 121 121 5
 5 5 5 5 5 5 5 5 5 5 5 5 5 5 5 5 5 5 5 5
 5 5 5 5 5 5 5 5 5 5 5 5 5 5 5 5 5 5 221 221
 221 221 221 221 221 221 221 221 221 221 221 221 221 221 221 221 221 221 221 221
 221 221 221 221 221 221 221 221 221 221 221 221 221 221 221 221 221 4 4 4
 4 4 4 4 4 4 4 4 4 4 4 4 4 4 4 4 4 4 4 4
 4 218 218 218 218 218 218 218 218 218 218 218 218 218 218 218 218 218 218 218
 218 218 218 218 218 218 218 70 70 70 70 70 70 70 70 70 70 70 70 70
 70 70 70 70 70 70 70 70 70 70 70 70 70 70 70 70 70 70 70 70
 70 70 70 70 70 70 70 70 70 70 70 70 70 70 70 70 70 70 70 70
 70 70 70 70 70 70 70 70 49 49 49 49 49 49 49 49 49 49 49 49
 49 49 49 49 49 49 49 49 49 49 49 49 49 49 49 49 49 49 49 49
 49 49 49 49 49 49 49 49 49 49 49 49 49 49 49 49 49 49 49 49
 49 49 49 49 49 49 49 49 49 49 49 49 49 49 49 49 49 49 49 49
 49 49 49 49 49 49 49 49 49 49 49 49 49 49 49 49 49 49 49 49
 49 49 49 49 49 49 49 49 49 49 49 49 49 49 49 49 49 49 49 49
 162 162 162 162 162 162 162 162 162 162 162 162 162 162 162 162 162 162 162 162
 162 162 162 162 162 162 162 162 162 162 162 162 162 162 162 162 162 162 162 162
 162 162 162 162 162 162 162 162 162 162 162 162 162 162 162 162 162 162 162 162
 55 55 55 55 55 55 55 55 55 55 55 55 55 55 55 55 55 55 55 55
 55 55 55 55 55 55 55 55 55 55 55 55 55 55 55 55 55 55 55 55
 55 55 55 55 55 55 55 102 102 102 102 102 102 102 102 102 102 102 102 102
 102 102 102 102 102 102 102 102 121 121 121 121 121 121 121 121 121 121 121 121
 121 121 121 121 121 121 121 121 121 121 121 121 121 121 121 121 121 121 121 121
 121 121 121 121 121 121 121 121 121 121 121 121 121 121 121 121 121 121 121 121
 121 121 121 121 121 121 121 121 121 121 121 121 121 121 121 121 121 121 121 5
 5 5 5 5 5 5 5 5 5 5 5 5 5 5 5 5 5 5 5 5
 5 5 5 5 5 5 5 5 5 5 5 5 5 5 5 5 5 5 221 221
 221 221 221 221 221 221 221 221 221 221 221 221 221 221 221 221 221 221 221 221
 221 221 221 221 221 221 221 221 221 221 221 221 221 221 221 221 221 221 4 4
 4 4 4 4 4 4 4 4 4 4 4 4 4 4 4 4 4 4 4 4
 218 218 218 218 218 218 218 218 218 218 218 218 218 218 218 218 218 218 218 218
 218 218 218 218 218 218 218 218 70 70 70 70 70 70 70 70 70 70 70 70
 70 70 70 70 70 70 70 70 70 70 70 70 70 70 70 70 70 70 70 70
 70 70 70 70 70 70 70 70 70 70 70 70 70 70 70 70 70 70 70 70
 70 70 70 70 70 70 70 70 70 49 49 49 49 49 49 49 49 49 49 49
 49 49 49 49 49 49 49 49 49 49 49 49 49 49 49 49 49 49 49 49
 49 49 49 49 49 49 49 49 49 49 49 49 49 49 49 49 49 49 49 49
 49 49 49 49 49 49 49 49 49 49 49 49 49 49 49 49 49 49 49 49
 49 49 49 49 49 49 49 49 49 49 49 49 49 49 49 49 49 49 49 49
 49 49 49 49 49 49 49 49 49 49 49 49 49 49 49 49 49 49 49 49
 162 162 162 162 162 162 162 162 162 162 162 162 162 162 162 162 162 162 162 162
 162 162 162 162 162 162 162 162 162 162 162 162 162 162 162 162 162 162 162 162
 162 162 162 162 162 162 162 162 162 162 162 162 162 162 162 162 162 162 162 162
 55 55 55 55 55 55 55 55 55 55 55 55 55 55 55 55 55 55 55 55
 55 55 55 55 55 55 55 55 55 55 55 55 55 55 55 55 55 55 55 55
 55 55 55 55 55 55 55 55 55 102 102 102 102 102 102 102 102 102 102 102
 102 102 102 102 102 102 102 102 121 121 121 121 121 121 121 121 121 121 121 121
 121 121 121 121 121 121 121 121 121 121 121 121 121 121 121 121 121 121 121 121
 121 121 121 121 121 121 121 121 121 121 121 121 121 121 121 121 121 121 121 121
 121 121 121 121 121 121 121 121 121 121 121 121 121 121 121 121 121 121 121 5
 5 5 5 5 5 5 5 5 5 5 5 5 5 5 5 5 5 5 5 5
 5 5 5 5 5 5 5 5 5 5 5 5 5 5 5 5 5 5 221 221
 221 221 221 221 221 221 221 221 221 221 221 221 221 221 221 221 221 221 221 221
 221 221 221 221 221 221 221 221 221 221 221 221 221 221 221 221 221 221 221 4
 4 4 4 4 4 4 4 4 4 4 4 4 4 4 4 4 4 4 4 4
 218 218 218 218 218 218 218 218 218 218 218 218 218 218 218 218 218 218 218 218
 218 218 218 218 218 218 218 218 218 218 218 218 70 70 70 70 70 70 70 70
 70 70 70 70 70 70 70 70 70 70 70 70 70 70 70 70 70 70 70 70
 70 70 70 70 70 70 70 70 70 70 70 70 70 70 70 70 70 70 70 70
 70 70 70 70 70 70 70 70 70 70 49 49 49 49 49 49 49 49 49 49
 49 49 49 49 49 49 49 49 49 49 49 49 49 49 49 49 49 49 49 49
 49 49 49 49 49 49 49 49 49 49 49 49 49 49 49 49 49 49 49 49
 49 49 49 49 49 49 49 49 49 49 49 49 49 49 49 49 49 49 49 49
 49 49 49 49 49 49 49 49 49 49 49 49 49 49 49 49 49 49 49 49
 49 49 49 49 49 49 49 49 49 49 49 49 49 49 49 49 49 49 49 49
 162 162 162 162 162 162 162 162 162 162 162 162 162 162 162 162 162 162 162 162
 162 162 162 162 162 162 162 162 162 162 162 162 162 162 162 162 162 162 162 162
 162 162 162 162 162 162 162 162 162 162 162 162 162 162 162 162 162 162 162 162
 55 55 55 55 55 55 55 55 55 55 55 55 55 55 55 55 55 55 55 55
 55 55 55 55 55 55 55 55 55 55 55 55 55 55 55 55 55 55 55 55
 55 55 55 55 55 55 55 55 55 55 55 102 102 102 102 102 102 102 102 102
 102 102 102 102 102 102 102 102 121 121 121 121 121 121 121 121 121 121 121 121
 121 121 121 121 121 121 121 121 121 121 121 121 121 121 121 121 121 121 121 121
 121 121 121 121 121 121 121 121 121 121 121 121 121 121 121 121 121 121 121 121
 121 121 121 121 121 121 121 121 121 121 121 121 121 121 121 121 121 121 121 5
 5 5 5 5 5 5 5 5 5 5 5 5 5 5 5 5 5 5 5 5
 5 5 5 5 5 5 5 5 5 5 5 5 5 5 5 5 5 5 221 221
 221 221 221 221 221 221 221 221 221 221 221 221 221 221 221 221 221 221 221 221
 221 221 221 221 221 221 221 221 221 221 221 221 221 221 221 221 221 221 221 221
 56 56 56 56 56 4 4 4 4 4 4 4 4 4 4 4 4 4 4 4
 218 218 218 218 218 218 218 218 218 218 218 218 218 218 218 218 218 218 218 218
 218 218 218 218 218 218 218 218 218 218 218 218 218 218 70 70 70 70 70 70
 70 70 70 70 70 70 70 70 70 70 70 70 70 70 70 70 70 70 70 70
 70 70 70 70 70 70 70 70 70 70 70 70 70 70 70 70 70 70 70 70
 70 70 70 70 70 70 70 70 70 70 49 49 49 49 49 49 49 49 49 49
 49 49 49 49 49 49 49 49 49 49 49 49 49 49 49 49 49 49 49 49
 49 49 49 49 49 49 49 49 49 49 49 49 49 49 49 49 49 49 49 49
 49 49 49 49 49 49 49 49 49 49 49 49 49 49 49 49 49 49 49 49
 49 49 49 49 49 49 49 49 49 49 49 49 49 49 49 49 49 49 49 49
 49 49 49 49 49 49 49 49 49 49 49 49 49 49 49 49 49 49 49 49
 162 162 162 162 162 162 162 162 162 162 162 162 162 162 162 162 162 162 162 162
 162 162 162 162 162 162 162 162 162 162 162 162 162 162 162 162 162 162 162 162
 162 162 162 162 162 162 162 162 162 162 162 162 162 162 162 162 162 162 162 162
 162 55 55 55 55 55 55 55 55 55 55 55 55 55 55 55 55 55 55 55
 55 55 55 55 55 55 55 55 55 55 55 55 55 55 55 55 55 55 55 55
 55 55 55 55 55 55 55 55 55 55 55 55 55 102 102 102 102 102 102 102
 102 102 102 102 102 102 102 102 121 121 121 121 121 121 121 121 121 121 121 121
 121 121 121 121 121 121 121 121 121 121 121 121 121 121 121 121 121 121 121 121
 121 121 121 121 121 121 121 121 121 121 121 121 121 121 121 121 121 121 121 121
 121 121 121 121 121 121 121 121 121 121 121 121 121 121 121 121 121 121 5 5
 5 5 5 5 5 5 5 5 5 5 5 5 5 5 5 5 5 5 5 5
 5 5 5 5 5 5 5 5 5 5 5 5 5 5 5 5 5 5 221 221
 221 221 221 221 221 221 221 221 221 221 221 221 221 221 221 221 221 221 221 221
 221 221 221 221 221 221 221 221 221 221 221 221 221 221 221 221 221 221 221 221
 56 56 56 56 56 56 56 56 4 4 4 4 4 4 4 4 4 4 4 4
 218 218 218 218 218 218 218 218 218 218 218 218 218 218 218 218 218 218 218 218
 218 218 218 218 218 218 218 218 218 218 218 218 218 218 70 70 70 70 70 70
 70 70 70 70 70 70 70 70 70 70 70 70 70 70 70 70 70 70 70 70
 70 70 70 70 70 70 70 70 70 70 70 70 70 70 70 70 70 70 70 70
 70 70 70 70 70 70 70 70 70 70 49 49 49 49 49 49 49 49 49 49
 49 49 49 49 49 49 49 49 49 49 49 49 49 49 49 49 49 49 49 49
 49 49 49 49 49 49 49 49 49 49 49 49 49 49 49 49 49 49 49 49
 49 49 49 49 49 49 49 49 49 49 49 49 49 49 49 49 49 49 49 49
 49 49 49 49 49 49 49 49 49 49 49 49 49 49 49 49 49 49 49 49
 49 49 49 49 49 49 49 49 49 49 49 49 49 49 49 49 49 49 49 49
 162 162 162 162 162 162 162 162 162 162 162 162 162 162 162 162 162 162 162 162
 162 162 162 162 162 162 162 162 162 162 162 162 162 162 162 162 162 162 162 162
 162 162 162 162 162 162 162 162 162 162 162 162 162 162 162 162 162 162 162 162
 162 162 162 55 55 55 55 55 55 55 55 55 55 55 55 55 55 55 55 55